
                                 *****************
                                 * O   R   C   A *
                                 *****************

                                            #,                                       
                                            ###                                      
                                            ####                                     
                                            #####                                    
                                            ######                                   
                                           ########,                                 
                                     ,,################,,,,,                         
                               ,,#################################,,                 
                          ,,##########################################,,             
                       ,#########################################, ''#####,          
                    ,#############################################,,   '####,        
                  ,##################################################,,,,####,       
                ,###########''''           ''''###############################       
              ,#####''   ,,,,##########,,,,          '''####'''          '####       
            ,##' ,,,,###########################,,,                        '##       
           ' ,,###''''                  '''############,,,                           
         ,,##''                                '''############,,,,        ,,,,,,###''
      ,#''                                            '''#######################'''  
     '                                                          ''''####''''         
             ,#######,   #######,   ,#######,      ##                                
            ,#'     '#,  ##    ##  ,#'     '#,    #''#        ,####,    ,#,          
            ##       ##  ##   ,#'  ##            #'  '#       #'       ,# #          
            ##       ##  #######   ##           ,######,      #####,      #          
            '#,     ,#'  ##    ##  '#,     ,#' ,#      #,     #,   #      #          
             '#######'   ##     ##  '#######'  #'      '#     '####' #    #          



                #########################################################
                #                        -***-                          #
                #          Department of theory and spectroscopy        #
                #                                                       #
                #                      Frank Neese                      #
                #                                                       #
                #     Directorship, Architecture, Infrastructure        #
                #                    SHARK, DRIVERS                     #
                #        Core code/Algorithms in most modules           #
                #                                                       #
                #        Max Planck Institute fuer Kohlenforschung      #
                #                Kaiser Wilhelm Platz 1                 #
                #                 D-45470 Muelheim/Ruhr                 #
                #                      Germany                          #
                #                                                       #
                #                  All rights reserved                  #
                #                        -***-                          #
                #########################################################


                         Program Version 6.1.0  -  RELEASE   -
                                (GIT: $679e74b$)
                          ($2025-06-10 18:02:51 +0200$)


 With contributions from (in alphabetic order):
[Max-Planck-Institut fuer Kohlenforschung]                               
  Daniel Aravena         : Magnetic Suceptibility                        
  Michael Atanasov       : Ab Initio Ligand Field Theory (pilot matlab implementation)
  Alexander A. Auer      : GIAO ZORA, VPT2 properties, NMR spectrum      
  Ute Becker             : All parallelization in ORCA, NUMFREQ, NUMCALC 
  Giovanni Bistoni       : ED, misc. LED, open-shell LED, HFLD           
  Dmytro Bykov           : pre 5.0 version of the SCF Hessian            
  Marcos Casanova-Páez   : Triplet and SCS-CIS(D). UHF-(DLPNO)-IP/EA/STEOM-CCSD. UHF-CVS-IP/STEOM-CCSD   
  Vijay G. Chilkuri      : MRCI spin determinant printing, contributions to CSF-ICE 
  Pauline Colinet        : FMM embedding                                 
  Dipayan Datta          : RHF DLPNO-CCSD density                        
  Achintya Kumar Dutta   : EOM-CC, STEOM-CC                              
  Nicolas Foglia         : Exact transition moments, OPA infrastructure, MCD improvements    
  Dmitry Ganyushin       : Spin-Orbit,Spin-Spin,Magnetic field MRCI      
  Miquel Garcia-Rates    : C-PCM and meta-GGA Hessian, CCSD/C-PCM, Gaussian charge scheme 
  Tiago L. C. Gouveia    : GS-ROHF, GS-ROCIS                             
  Yang Guo               : DLPNO-NEVPT2, F12-NEVPT2, CIM, IAO-localization        
  Andreas Hansen         : Spin unrestricted coupled pair/coupled cluster methods 
  Ingolf Harden          : AUTO-CI MPn and infrastructure                
  Benjamin Helmich-Paris : MC-RPA, TRAH-(SCF,CASSCF), AVAS, COSX integrals, SCF dyn. polar., MC-PDFT, srDFT 
  Lee Huntington         : MR-EOM, pCC                                   
  Robert Izsak           : Overlap fitted RIJCOSX, COSX-SCS-MP3, EOM     
  Riya Kayal             : Wick's Theorem for AUTO-CI, AUTO-CI UHF-CCSDT 
  Emily Kempfer          : AUTO-CI RHF CISDT and CCSDT, approximate NEVPT4
  Christian Kollmar      : KDIIS, OOCD, Brueckner-CCSD(T), CCSD density, CASPT2, CASPT2-K, improved NEVPT2 
  Axel Koslowski         : Symmetry handling                             
  Simone Kossmann        : meta-GGA functionals, TD-DFT gradient, OOMP2, (MP2 Hessian; deprecated post 5.0) 
  Lucas Lang             : DCDCAS, Hyperfine gauge corrections, ICE-SOC+SSC
  Marvin Lechner         : AUTO-CI (C++ implementation), FIC-MRCC        
  Spencer Leger          : CASSCF response                               
  Dagmar Lenk            : GEPOL surface, SMD, ORCA-2-JSON               
  Dimitrios Liakos       : Extrapolation schemes; Compound Job, Property file
  Dimitrios Manganas     : Further ROCIS development; embedding schemes. LFT, Crystal Embedding 
  Dimitrios Pantazis     : SARC Basis sets                               
  Anastasios Papadopoulos: AUTO-CI, single reference methods and gradients 
  Taras Petrenko         : pre 6.0 DFT Hessian and TD-DFT gradient,  ECA, NRVS 
  Petra Pikulova         : Analytic Raman intensities                    
  Peter Pinski           : DLPNO-MP2, DLPNO-MP2 Gradient                 
  Shashank Vittal Rao    : ES-AILFT, MagRelax                            
  Christoph Reimann      : Effective Core Potentials                     
  Marius Retegan         : Local ZFS, SOC                                
  Christoph Riplinger    : Optimizer, TS searches, QM/MM, DLPNO-CCSD(T), (RO)-DLPNO pert. Triples 
  Michael Roemelt        : Original ROCIS implementation, recursive CI coupling coefficients
  Masaaki Saitow         : Open-shell DLPNO-CCSD energy and density      
  Barbara Sandhoefer     : DKH picture change effects                    
  Yorick L. A. Schmerwitz: GMF and freeze-and-release deltaSCF, NEB S-IDPP initial path                    
  Kantharuban Sivalingam : CASSCF convergence/infrastructure, NEVPT2, NEVPT3, NEVPT4(SD), FIC-MRCI and CEPA variants
  Bernardo de Souza      : ESD, SOC TD-DFT                               
  Georgi L. Stoychev     : AutoAux, RI-MP2 NMR, DLPNO-MP2 response, X2C  
  Van Anh Tran           : RI-MP2 g-tensors                              
  Willem Van den Heuvel  : Paramagnetic NMR                              
  Zikuan Wang            : NOTCH, Electric field optimization            
  Frank Wennmohs         : Technical directorship and infrastructure     
  Hang Xu                : AUTO-CI-Response properties                   
                                                                         
[FACCTs GmbH]                                                            
  Markus Bursch, Nicolas Foglia, Miquel Garcia-Rates, Ingolf Harden, Hagen Neugebauer, Anastasios Papadopoulos, 
  Christoph Riplinger, Bernardo de Souza, Georgi L. Stoychev                                                    
                                                                 
  APM, various basis sets, CI-OPT, improved COSX, DLPNO-Multilevel,           
  DOCKER, DRACO, updates on ESD, Fragmentator, GOAT, IRC, LR-CPCM, L-BFGS, MBIS, meta-GGA TD-DFT gradient, ML-optimized integration grids, 
  MM, NACMEs, nearIR, NEB, NEB-TS, NL-DFT gradient (VV10), 2- and 3-layer-ONIOM, interface openCOSMO-RS, QMMM,   
  Crystal-QMMM, RESP, rigid body optimization, SF, symmetry and pop. for TD-DFT, various functionals, SOLVATOR                                   
                                                                         
[Other institutions]                                                     
  V. Asgeirsson          : NEB                                           
  Christoph Bannwarth    : sTDA-DFT, sTD-DFT, PBEh-3c, B97-3c, D3        
  Giovanni Bistoni       : ETS/NOCV, ADLD/ADEX, COVALED                  
  Martin Brehm           : Molecular dynamics                            
  Ronald Cardenas        : ETS/NOCV                                      
  Martina Colucci        : COVALED                                       
  Sebastian Ehlert       : rSCAN, r2SCAN, r2SCAN-3c, D4, dhf basis sets  
  Marvin Friede          : D4 for Fr, Ra, Ac-Lr                          
  Lars Goerigk           : TD-DFT with DH, B97 family of functionals     
  Stefan Grimme          : VdW corrections, initial TS optimization, DFT functionals, gCP, sTDA/sTD-DF 
  Waldemar Hujo          : DFT-NL                                        
  H. Jonsson             : NEB                                           
  Holger Kruse           : gCP                                           
  Marcel Mueller         : wB97X-3c, vDZP basis set                      
  Hagen Neugebauer       : wr2SCAN, Native XTB                           
  Gianluca Regni         : ADLD/ADEX                                     
  Tobias Risthaus        : pre 6.0 range-separated hybrid DFT and stability analysis
  Lukas Wittmann         : regularized MP2, r2SCAN double-hybrids, wr2SCAN        
                                                                         
We gratefully acknowledge several colleagues who have allowed us to      
interface, adapt or use parts of their codes:                            
  Ed Valeev, F. Pavosevic, A. Kumar             : LibInt (2-el integral package), F12 methods 
  Garnet Chan, S. Sharma, J. Yang, R. Olivares  : DMRG                   
  Ulf Ekstrom                                   : XCFun DFT Library      
  Mihaly Kallay                                 : mrcc  (arbitrary order and MRCC methods)
  Frank Weinhold                                : gennbo (NPA and NBO analysis)           
  Simon Mueller                                 : openCOSMO-RS                            
  Christopher J. Cramer and Donald G. Truhlar   : smd solvation model                     
  S Lehtola, MJT Oliveira, MAL Marques          : LibXC Library                           
  Liviu Ungur et al                             : ANISO software                          


 Your calculation uses the libint2 library for the computation of 2-el integrals
 For citations please refer to: http://libint.valeyev.net

 Your ORCA version has been built with support for libXC version: 7.0.0
 For citations please refer to: https://libxc.gitlab.io

 This ORCA versions uses:
   CBLAS   interface :  Fast vector & matrix operations
   LAPACKE interface :  Fast linear algebra routines
   SCALAPACK package :  Parallel linear algebra routines
   Shared memory     :  Shared parallel matrices
   BLAS/LAPACK       :  OpenBLAS 0.3.29  USE64BITINT DYNAMIC_ARCH NO_AFFINITY Haswell SINGLE_THREADED
        Core in use  :  Haswell
   Copyright (c) 2011-2014, The OpenBLAS Project


  ***********************************
  * Starting time: Thu Oct 23 15:17:52 2025
  * Host name:     corine-kengne-Latitude-5491
  * Process ID:    58006
  * Working dir.:  /home/corine-kengne/Documents/Orca_optimisation
  ***********************************

NOTE: MaxCore=10000 MB was set to SCF,MP2,MDCI,CIPSI,MRCI,RASCI and CIS
      => If you want to overwrite this, your respective input block should be placed after the MaxCore statement
Your calculation utilizes the semiempirical GFN2-xTB method
Please cite in your paper:
Bannwarth, C.; Ehlert S.; Grimme, S. J. Chem. Theory Comput. 2019, 15, 1652.
   

================================================================================

================================================================================
                                        WARNINGS
                       Please study these warnings very carefully!
================================================================================


WARNING: Geometry Optimization
  ===> : Switching off AutoStart
         For restart on a previous wavefunction, please use MOREAD

WARNING: Found dipole moment calculation with XTB calculation
  ===> : Switching off dipole moment calculation


================================================================================
                                       INPUT FILE
================================================================================
NAME = Bod_xtb_opt.inp
|  1> ! xtb2 Opt
|  2> 
|  3> %maxcore 10000          # Alloue 10000 Mo de RAM pour le calcul
|  4> 
|  5> * xyz 0 1               # Début des coordonnées : charge 0, multiplicité 1 (singulet)
|  6> C     -1.683354    4.843392   -0.000151
|  7> C     -2.837546    4.051034   -0.000321
|  8> C     -4.104586    4.590259   -0.000286
|  9> C     -4.846355    3.381748   -0.000255
| 10> C     -4.089204    2.231599   -0.000411
| 11> C     -0.518539    4.195236   -0.000168
| 12> C      0.764864    4.836725   -0.000539
| 13> C      1.602637    3.799891   -0.000738
| 14> C      0.859743    2.715450   -0.000449
| 15> N     -2.825390    2.744704   -0.000139
| 16> N     -0.410313    2.874704   -0.000415
| 17> B     -1.717250    2.221544   -0.000359
| 18> F     -2.675518    1.142797   -0.000232
| 19> F     -0.671102    1.274082   -0.000413
| 20> H      2.628991    3.914534   -0.001058
| 21> H      1.304247    1.749967   -0.000267
| 22> H      1.061930    5.824103   -0.000648
| 23> H     -4.430088    5.610503   -0.000283
| 24> H     -5.916254    3.364219   -0.000120
| 25> H     -4.406877    1.209818   -0.000675
| 26> H     -1.707943    5.906710   -0.000015
| 27> 
| 28> *
| 29> 
| 30>                          ****END OF INPUT****
================================================================================

                       *****************************
                       * Geometry Optimization Run *
                       *****************************

Geometry optimization settings:
Update method            Update   .... BFGS
Choice of coordinates    CoordSys .... (2022) Redundant Internals
Initial Hessian          InHess   .... Almloef's Model
Max. no of cycles        MaxIter  .... 63

Convergence Tolerances:
Energy Change            TolE     ....  5.0000e-06 Eh
Max. Gradient            TolMAXG  ....  3.0000e-04 Eh/bohr
RMS Gradient             TolRMSG  ....  1.0000e-04 Eh/bohr
Max. Displacement        TolMAXD  ....  4.0000e-03 bohr
RMS Displacement         TolRMSD  ....  2.0000e-03 bohr
Strict Convergence                .... False

------------------------------------------------------------------------------
                        ORCA OPTIMIZATION COORDINATE SETUP
------------------------------------------------------------------------------

The optimization will be done in redundant internal coordinates (2022)
Making redundant internal coordinates   ...  (2022 redundants) done
Evaluating the initial hessian          ...  (Almloef) done
Evaluating the coordinates              ...  done
Calculating the B-matrix                .... done
Calculating the G-matrix                .... done
The number of degrees of freedom        ....  162

    -----------------------------------------------------------------
                    Redundant Internal Coordinates


    -----------------------------------------------------------------
         Definition                    Initial Value    Approx d2E/dq
    -----------------------------------------------------------------
      1. B(C   1,C   0)                  1.4000         0.602268   
      2. B(C   2,C   1)                  1.3770         0.655337   
      3. B(C   3,C   2)                  1.4180         0.563727   
      4. B(C   4,C   3)                  1.3770         0.655366   
      5. B(C   5,C   0)                  1.3330         0.770321   
      6. B(C   6,C   5)                  1.4348         0.529998   
      7. B(C   7,C   6)                  1.3330         0.770333   
      8. B(C   8,C   7)                  1.3145         0.824514   
      9. B(N   9,C   4)                  1.3640         0.615677   
     10. B(N   9,C   1)                  1.3064         0.760809   
     11. B(N  10,C   8)                  1.2800         0.838245   
     12. B(N  10,C   5)                  1.3250         0.710630   
     13. B(B  11,N  10)                  1.4611         0.499250   
     14. B(B  11,N   9)                  1.2254         1.186476   
     15. B(F  12,C   4)                  1.7844         0.122114   
     16. B(F  12,B  11)                  1.4429         0.495883   
     17. B(F  12,N   9)                  1.6089         0.208381   
     18. B(F  13,B  11)                  1.4114         0.556683   
     19. B(F  13,N  10)                  1.6217         0.198791   
     20. B(H  14,C   7)                  1.0327         0.444409   
     21. B(H  15,C   8)                  1.0629         0.397806   
     22. B(H  16,C   6)                  1.0311         0.447092   
     23. B(H  17,C   2)                  1.0709         0.386259   
     24. B(H  18,C   3)                  1.0700         0.387493   
     25. B(H  19,C   4)                  1.0700         0.387519   
     26. B(H  20,C   0)                  1.0636         0.396770   
     27. A(C   5,C   0,H  20)          120.4183         0.372352   
     28. A(C   1,C   0,C   5)          116.4367         0.449072   
     29. A(C   1,C   0,H  20)          123.1451         0.357000   
     30. A(C   0,C   1,N   9)          123.9366         0.445106   
     31. A(C   0,C   1,C   2)          122.4767         0.436135   
     32. A(C   2,C   1,N   9)          113.5867         0.451978   
     33. A(C   1,C   2,H  17)          130.7485         0.360516   
     34. A(C   3,C   2,H  17)          130.7640         0.351419   
     35. A(C   1,C   2,C   3)           98.4875         0.430978   
     36. A(C   2,C   3,H  18)          122.4797         0.351608   
     37. A(C   4,C   3,H  18)          122.4185         0.360715   
     38. A(C   2,C   3,C   4)          115.1017         0.430981   
     39. A(C   3,C   4,F  12)          160.9602         0.327575   
     40. A(F  12,C   4,H  19)           69.6676         0.272205   
     41. A(N   9,C   4,F  12)           59.7000         0.322290   
     42. A(N   9,C   4,H  19)          129.3676         0.354700   
     43. A(C   3,C   4,N   9)          101.2602         0.435002   
     44. A(C   3,C   4,H  19)          129.3723         0.360719   
     45. A(C   6,C   5,N  10)          111.8722         0.429649   
     46. A(C   0,C   5,N  10)          123.7788         0.459735   
     47. A(C   0,C   5,C   6)          124.3490         0.438803   
     48. A(C   5,C   6,C   7)          102.3811         0.438804   
     49. A(C   7,C   6,H  16)          124.3168         0.380115   
     50. A(C   5,C   6,H  16)          133.3021         0.356489   
     51. A(C   6,C   7,C   8)          106.6484         0.475603   
     52. A(C   8,C   7,H  14)          130.7865         0.384226   
     53. A(C   6,C   7,H  14)          122.5651         0.379719   
     54. A(C   7,C   8,N  10)          117.2659         0.479824   
     55. A(N  10,C   8,H  15)          121.8682         0.375616   
     56. A(C   7,C   8,H  15)          120.8659         0.376915   
     57. A(B  11,N   9,F  12)           59.3828         0.395176   
     58. A(C   4,N   9,F  12)           73.2479         0.350046   
     59. A(C   1,N   9,C   4)          111.5639         0.443940   
     60. A(C   4,N   9,B  11)          132.6307         0.485829   
     61. A(C   1,N   9,B  11)          115.8054         0.505303   
     62. A(C   8,N  10,F  13)           92.1068         0.365961   
     63. A(C   5,N  10,F  13)          166.0608         0.355799   
     64. A(C   5,N  10,C   8)          101.8324         0.463785   
     65. A(C   8,N  10,B  11)          146.2987         0.438822   
     66. A(C   5,N  10,B  11)          111.8689         0.425987   
     67. A(B  11,N  10,F  13)           54.1919         0.338029   
     68. A(N  10,B  11,F  12)          158.1694         0.401352   
     69. A(N   9,B  11,F  12)           73.6571         0.468957   
     70. A(N   9,B  11,N  10)          128.1735         0.471620   
     71. A(F  12,B  11,F  13)           89.4491         0.407404   
     72. A(N  10,B  11,F  13)           68.7203         0.409637   
     73. A(N   9,B  11,F  13)          163.1062         0.479034   
     74. A(N   9,F  12,B  11)           46.9601         0.338947   
     75. A(C   4,F  12,B  11)           94.0122         0.312371   
     76. A(C   4,F  12,N   9)           47.0521         0.268996   
     77. A(N  10,F  13,B  11)           57.0878         0.342854   
     78. D(N   9,C   1,C   0,C   5)      0.0186         0.025016   
     79. D(N   9,C   1,C   0,H  20)   -179.9815         0.025016   
     80. D(C   2,C   1,C   0,H  20)     -0.0019         0.025016   
     81. D(C   2,C   1,C   0,C   5)    179.9981         0.025016   
     82. D(C   3,C   2,C   1,N   9)     -0.0083         0.029937   
     83. D(H  17,C   2,C   1,N   9)    179.9917         0.029937   
     84. D(C   3,C   2,C   1,C   0)   -179.9898         0.029937   
     85. D(H  17,C   2,C   1,C   0)      0.0102         0.029937   
     86. D(H  18,C   3,C   2,H  17)     -0.0065         0.021779   
     87. D(H  18,C   3,C   2,C   1)    179.9935         0.021779   
     88. D(C   4,C   3,C   2,H  17)    179.9935         0.021779   
     89. D(C   4,C   3,C   2,C   1)     -0.0065         0.021779   
     90. D(N   9,C   4,C   3,H  18)   -179.9826         0.032552   
     91. D(F  12,C   4,C   3,C   2)      0.0409         0.032552   
     92. D(N   9,C   4,C   3,C   2)      0.0174         0.032552   
     93. D(F  12,C   4,C   3,H  18)   -179.9591         0.032552   
     94. D(H  19,C   4,C   3,C   2)   -179.9826         0.032552   
     95. D(C   6,C   5,C   0,C   1)    179.9744         0.042543   
     96. D(C   6,C   5,C   0,H  20)     -0.0255         0.042543   
     97. D(N  10,C   5,C   0,H  20)   -179.9957         0.042543   
     98. D(N  10,C   5,C   0,C   1)      0.0042         0.042543   
     99. D(H  16,C   6,C   5,N  10)    179.9882         0.019173   
    100. D(H  16,C   6,C   5,C   0)      0.0149         0.019173   
    101. D(C   7,C   6,C   5,N  10)     -0.0120         0.019173   
    102. D(C   7,C   6,C   5,C   0)   -179.9853         0.019173   
    103. D(H  14,C   7,C   6,H  16)     -0.0024         0.042544   
    104. D(H  14,C   7,C   6,C   5)    179.9977         0.042544   
    105. D(C   8,C   7,C   6,H  16)    179.9975         0.042544   
    106. D(C   8,C   7,C   6,C   5)     -0.0024         0.042544   
    107. D(N  10,C   8,C   7,H  14)   -179.9826         0.049452   
    108. D(N  10,C   8,C   7,C   6)      0.0175         0.049452   
    109. D(H  15,C   8,C   7,H  14)      0.0165         0.049452   
    110. D(H  15,C   8,C   7,C   6)   -179.9834         0.049452   
    111. D(B  11,N   9,C   4,F  12)      0.0245         0.035857   
    112. D(B  11,N   9,C   4,C   3)   -179.9844         0.035857   
    113. D(C   1,N   9,C   4,H  19)    179.9780         0.035857   
    114. D(B  11,N   9,C   1,C   2)    179.9898         0.053106   
    115. D(C   1,N   9,C   4,C   3)     -0.0220         0.035857   
    116. D(B  11,N   9,C   1,C   0)     -0.0290         0.053106   
    117. D(C   4,N   9,C   1,C   2)      0.0205         0.053106   
    118. D(C   4,N   9,C   1,C   0)   -179.9983         0.053106   
    119. D(B  11,N   9,C   4,H  19)      0.0156         0.035857   
    120. D(C   1,N   9,C   4,F  12)    179.9869         0.035857   
    121. D(F  13,N  10,C   8,C   7)    179.9866         0.066044   
    122. D(B  11,N  10,C   8,H  15)     -0.0108         0.066044   
    123. D(B  11,N  10,C   8,C   7)    179.9883         0.066044   
    124. D(C   5,N  10,C   8,H  15)    179.9769         0.066044   
    125. D(C   5,N  10,C   8,C   7)     -0.0240         0.066044   
    126. D(F  13,N  10,C   5,C   0)     -0.0496         0.045630   
    127. D(B  11,N  10,C   5,C   6)   -179.9864         0.045630   
    128. D(B  11,N  10,C   5,C   0)     -0.0129         0.045630   
    129. D(C   8,N  10,C   5,C   6)      0.0209         0.045630   
    130. D(C   8,N  10,C   5,C   0)    179.9944         0.045630   
    131. D(N   9,B  11,N  10,F  13)    179.9901         0.018787   
    132. D(N   9,B  11,N  10,C   8)    179.9881         0.018787   
    133. D(N   9,B  11,N  10,C   5)      0.0010         0.018787   
    134. D(F  13,B  11,N   9,C   1)    179.9875         0.125778   
    135. D(F  12,B  11,N   9,C   4)     -0.0272         0.125778   
    136. D(F  12,B  11,N   9,C   1)   -179.9884         0.125778   
    137. D(N  10,B  11,N   9,F  12)   -179.9925         0.125778   
    138. D(N  10,B  11,N   9,C   4)    179.9803         0.125778   
    139. D(F  12,B  11,N  10,C   5)   -179.9795         0.018787   
    140. D(N  10,B  11,N   9,C   1)      0.0191         0.125778   
    141. D(F  12,B  11,N  10,F  13)      0.0096         0.018787   
    142. D(F  12,B  11,N  10,C   8)      0.0075         0.018787   
    143. D(N   9,F  12,B  11,F  13)    179.9930         0.019065   
    144. D(N   9,F  12,B  11,N  10)    179.9841         0.019065   
    145. D(C   4,F  12,B  11,N  10)    179.9994         0.019065   
    146. D(C   4,F  12,B  11,N   9)      0.0154         0.019065   
    147. D(B  11,F  12,N   9,C   4)    179.9791         0.010000   
    148. D(C   4,F  12,N   9,B  11)   -179.9791         0.010000   
    149. D(B  11,F  12,C   4,H  19)    179.9773         0.010000   
    150. D(B  11,F  12,C   4,N   9)     -0.0153         0.010000   
    151. D(B  11,F  12,C   4,C   3)     -0.0420         0.010000   
    152. D(N   9,F  12,C   4,H  19)    179.9927         0.010000   
    153. D(N   9,F  12,C   4,C   3)     -0.0267         0.010000   
    154. D(B  11,F  12,C   1,C   2)    179.9971         0.010000   
    155. D(C   4,F  12,B  11,F  13)   -179.9916         0.019065   
    156. D(B  11,F  12,C   1,C   0)     -0.0146         0.010000   
    157. D(C   4,F  12,C   1,C   2)      0.0086         0.010000   
    158. D(C   4,F  12,C   1,C   0)    179.9969         0.010000   
    159. D(N  10,F  13,B  11,F  12)   -179.9964         0.022318   
    160. D(N  10,F  13,B  11,N   9)   -179.9733         0.022318   
    161. D(B  11,F  13,N  10,C   8)    179.9989         0.010000   
    162. D(B  11,F  13,N  10,C   5)      0.0420         0.010000   
    -----------------------------------------------------------------

Number of atoms                         .... 21
Number of degrees of freedom            .... 162


         *************************************************************
         *                GEOMETRY OPTIMIZATION CYCLE   1            *
         *************************************************************
---------------------------------
CARTESIAN COORDINATES (ANGSTROEM)
---------------------------------
  C    -1.683354    4.843392   -0.000151
  C    -2.837546    4.051034   -0.000321
  C    -4.104586    4.590259   -0.000286
  C    -4.846355    3.381748   -0.000255
  C    -4.089204    2.231599   -0.000411
  C    -0.518539    4.195236   -0.000168
  C     0.764864    4.836725   -0.000539
  C     1.602637    3.799891   -0.000738
  C     0.859743    2.715450   -0.000449
  N    -2.825390    2.744704   -0.000139
  N    -0.410313    2.874704   -0.000415
  B    -1.717250    2.221544   -0.000359
  F    -2.675518    1.142797   -0.000232
  F    -0.671102    1.274082   -0.000413
  H     2.628991    3.914534   -0.001058
  H     1.304247    1.749967   -0.000267
  H     1.061930    5.824103   -0.000648
  H    -4.430088    5.610503   -0.000283
  H    -5.916254    3.364219   -0.000120
  H    -4.406877    1.209818   -0.000675
  H    -1.707943    5.906710   -0.000015

----------------------------
CARTESIAN COORDINATES (A.U.)
----------------------------
  NO LB    ZA    FRAG    MASS        X           Y           Z
   0 C   6.0000    0    12.011   -3.181078    9.152684   -0.000285
   1 C   6.0000    0    12.011   -5.362185    7.655345   -0.000607
   2 C   6.0000    0    12.011   -7.756543    8.674332   -0.000540
   3 C   6.0000    0    12.011   -9.158284    6.390578   -0.000482
   4 C   6.0000    0    12.011   -7.727476    4.217111   -0.000777
   5 C   6.0000    0    12.011   -0.979897    7.927847   -0.000317
   6 C   6.0000    0    12.011    1.445383    9.140086   -0.001019
   7 C   6.0000    0    12.011    3.028545    7.180753   -0.001395
   8 C   6.0000    0    12.011    1.624679    5.131457   -0.000848
   9 N   7.0000    0    14.007   -5.339213    5.186739   -0.000263
  10 N   7.0000    0    14.007   -0.775379    5.432403   -0.000784
  11 B   5.0000    0    10.810   -3.245132    4.198110   -0.000678
  12 F   9.0000    0    18.998   -5.055996    2.159573   -0.000438
  13 F   9.0000    0    18.998   -1.268199    2.407666   -0.000780
  14 H   1.0000    0     1.008    4.968073    7.397397   -0.001999
  15 H   1.0000    0     1.008    2.464670    3.306958   -0.000505
  16 H   1.0000    0     1.008    2.006757   11.005960   -0.001225
  17 H   1.0000    0     1.008   -8.371653   10.602314   -0.000535
  18 H   1.0000    0     1.008  -11.180100    6.357453   -0.000227
  19 H   1.0000    0     1.008   -8.327791    2.286225   -0.001276
  20 H   1.0000    0     1.008   -3.227545   11.162064   -0.000028

      -----------------------------------------------------------      
     |                   =====================                   |     
     |                           x T B                           |     
     |                   =====================                   |     
     |                         S. Grimme                         |     
     |          Mulliken Center for Theoretical Chemistry        |     
     |                    University of Bonn                     |     
      -----------------------------------------------------------      

   * xtb version 6.7.1 (edcfbbe) compiled by 'albert@albert-system' on 2024-07-22

   xtb is free software: you can redistribute it and/or modify it under
   the terms of the GNU Lesser General Public License as published by
   the Free Software Foundation, either version 3 of the License, or
   (at your option) any later version.
   
   xtb is distributed in the hope that it will be useful,
   but WITHOUT ANY WARRANTY; without even the implied warranty of
   MERCHANTABILITY or FITNESS FOR A PARTICULAR PURPOSE.  See the
   GNU Lesser General Public License for more details.
   
   Cite this work as:
   * C. Bannwarth, E. Caldeweyher, S. Ehlert, A. Hansen, P. Pracht,
     J. Seibert, S. Spicher, S. Grimme, WIREs Comput. Mol. Sci., 2020, 11,
     e01493. DOI: 10.1002/wcms.1493
   
   for GFN2-xTB:
   * C. Bannwarth, S. Ehlert and S. Grimme., J. Chem. Theory Comput., 2019,
     15, 1652-1671. DOI: 10.1021/acs.jctc.8b01176
   for GFN1-xTB:
   * S. Grimme, C. Bannwarth, P. Shushkov, J. Chem. Theory Comput., 2017,
     13, 1989-2009. DOI: 10.1021/acs.jctc.7b00118
   for GFN0-xTB:
   * P. Pracht, E. Caldeweyher, S. Ehlert, S. Grimme, ChemRxiv, 2019, preprint.
     DOI: 10.26434/chemrxiv.8326202.v1
   for GFN-FF:
   * S. Spicher and S. Grimme, Angew. Chem. Int. Ed., 2020, 59, 15665-15673.
     DOI: 10.1002/anie.202004239
   
   for ALPB and GBSA implicit solvation:
   * S. Ehlert, M. Stahn, S. Spicher, S. Grimme, J. Chem. Theory Comput.,
     2021, 17, 4250-4261. DOI: 10.1021/acs.jctc.1c00471
   
   for ddCOSMO and CPCM-X implicit solvation:
   * M. Stahn, S. Ehlert, S. Grimme, J. Phys. Chem. A,
     2023, XX, XXXX-XXXX. DOI: 10.1021/acs.jpca.3c04382
   
   for DFT-D4:
   * E. Caldeweyher, C. Bannwarth and S. Grimme, J. Chem. Phys., 2017,
     147, 034112. DOI: 10.1063/1.4993215
   * E. Caldeweyher, S. Ehlert, A. Hansen, H. Neugebauer, S. Spicher,
     C. Bannwarth and S. Grimme, J. Chem. Phys., 2019, 150, 154122.
     DOI: 10.1063/1.5090222
   * E. Caldeweyher, J.-M. Mewes, S. Ehlert and S. Grimme, Phys. Chem. Chem. Phys.
     2020, 22, 8499-8512. DOI: 10.1039/D0CP00502A
   
   for sTDA-xTB:
   * S. Grimme and C. Bannwarth, J. Chem. Phys., 2016, 145, 054103.
     DOI: 10.1063/1.4959605
   
   in the mass-spec context:
   * V. Asgeirsson, C. Bauer and S. Grimme, Chem. Sci., 2017, 8, 4879.
     DOI: 10.1039/c7sc00601b
   * J. Koopman and S. Grimme, ACS Omega 2019, 4, 12, 15120-15133.
     DOI: 10.1021/acsomega.9b02011
   
   for metadynamics refer to:
   * S. Grimme, J. Chem. Theory Comput., 2019, 155, 2847-2862
     DOI: 10.1021/acs.jctc.9b00143
   
   for SPH calculations refer to:
   * S. Spicher and S. Grimme, J. Chem. Theory Comput., 2021, 17, 1701-1714
     DOI: 10.1021/acs.jctc.0c01306
   
   for ONIOM refer to:
   * C. Plett, A. Katbashev, S. Ehlert, S. Grimme, M. Bursch,
     Phys. Chem. Chem. Phys., 2023, 25, 17860-17868. DOI: 10.1039/D3CP02178E
   
   for DIPRO refer to:
   * J. Kohn, N. Gildemeister, S. Grimme, D. Fazzi, A. Hansen,
     J. Chem. Phys., 2023, just accepted.
   
   for PTB refer to:
   * S. Grimme, M. Mueller, A. Hansen, J. Chem. Phys., 2023, 158, 124111.
     DOI: 10.1063/5.0137838
   
   with help from (in alphabetical order)
   P. Atkinson, C. Bannwarth, F. Bohle, G. Brandenburg, E. Caldeweyher
   M. Checinski, S. Dohm, S. Ehlert, S. Ehrlich, I. Gerasimov, C. Hölzer
   A. Katbashev, J. Kohn, J. Koopman, C. Lavigne, S. Lehtola, F. März, M. Müller,
   F. Musil, H. Neugebauer, J. Pisarek, C. Plett, P. Pracht, F. Pultar,
   J. Seibert, P. Shushkov, S. Spicher, M. Stahn, M. Steiner, T. Strunk,
   J. Stückrath, T. Rose, and J. Unsleber
   
 * started run on 2025/10/23 at 15:17:52.433     
   ID    Z sym.   atoms
    1    6 C      1-9
    2    7 N      10, 11
    3    5 B      12
    4    9 F      13, 14
    5    1 H      15-21

           -------------------------------------------------
          |                Calculation Setup                |
           -------------------------------------------------

          program call               : otool_xtb Bod_xtb_opt_XTB.xyz --grad -c 0 -u 0 -P 1 --namespace Bod_xtb_opt --input Bod_xtb_opt_XTB.input.tmp --acc 0.200000
          calculation namespace      : Bod_xtb_opt
          coordinate file            : Bod_xtb_opt_XTB.xyz
          omp threads                :                     1


           -------------------------------------------------
          |                 G F N 2 - x T B                 |
           -------------------------------------------------

        Reference                      10.1021/acs.jctc.8b01176
      * Hamiltonian:
        H0-scaling (s, p, d)           1.850000    2.230000    2.230000
        zeta-weighting                 0.500000
      * Dispersion:
        s8                             2.700000
        a1                             0.520000
        a2                             5.000000
        s9                             5.000000
      * Repulsion:
        kExp                           1.500000    1.000000
        rExp                           1.000000
      * Coulomb:
        alpha                          2.000000
        third order                    shell-resolved
        anisotropic                    true
        a3                             3.000000
        a5                             4.000000
        cn-shift                       1.200000
        cn-exp                         4.000000
        max-rad                        5.000000


          ...................................................
          :                      SETUP                      :
          :.................................................:
          :  # basis functions                  63          :
          :  # atomic orbitals                  63          :
          :  # shells                           35          :
          :  # electrons                        70          :
          :  max. iterations                   250          :
          :  Hamiltonian                  GFN2-xTB          :
          :  restarted?                      false          :
          :  GBSA solvation                  false          :
          :  PC potential                    false          :
          :  electronic temp.          300.0000000     K    :
          :  accuracy                    0.2000000          :
          :  -> integral cutoff          0.3198970E+02      :
          :  -> integral neglect         0.2000000E-08      :
          :  -> SCF convergence          0.2000000E-06 Eh   :
          :  -> wf. convergence          0.2000000E-04 e    :
          :  Broyden damping             0.4000000          :
          :  net charge                          0          :
          :  unpaired electrons                  0          :
          ...................................................

 iter      E             dE          RMSdq      gap      omega  full diag
   1    -39.3232129 -0.393232E+02  0.625E+00    0.56       0.0  T
   2    -39.5587319 -0.235519E+00  0.446E+00    0.28       1.0  T
   3    -39.2697305  0.289001E+00  0.322E+00    0.77       1.0  T
   4    -39.4928976 -0.223167E+00  0.326E+00    1.50       1.0  T
   5    -39.5836523 -0.907546E-01  0.185E+00    0.90       1.0  T
   6    -39.6041192 -0.204669E-01  0.132E+00    0.56       1.0  T
   7    -39.6186535 -0.145343E-01  0.104E+00    0.26       1.0  T
   8    -39.6387918 -0.201383E-01  0.329E-01    0.06       1.0  T
   9    -39.6353624  0.342945E-02  0.478E-01    0.11       1.0  T
  10    -39.5734489  0.619135E-01  0.162E+00    0.03       1.0  T
  11    -39.6326514 -0.592026E-01  0.557E-01    0.13       1.0  T
  12    -39.6385406 -0.588914E-02  0.254E-01    0.05       1.0  T
  13    -39.6401538 -0.161319E-02  0.293E-02    0.07       1.0  T
  14    -39.6400754  0.783630E-04  0.613E-02    0.07       1.0  T
  15    -39.6401722 -0.967962E-04  0.249E-03    0.07       8.8  T
  16    -39.6401722 -0.203277E-07  0.194E-03    0.07      11.3  T
  17    -39.6401723 -0.882308E-07  0.604E-04    0.07      36.1  T
  18    -39.6401723 -0.776257E-08  0.238E-04    0.07      91.7  T
  19    -39.6401723  0.158806E-09  0.232E-04    0.07      94.2  T
  20    -39.6401723 -0.103792E-08  0.121E-04    0.07     180.7  T
  21    -39.6401723 -0.291593E-09  0.573E-05    0.07     380.8  T

   *** convergence criteria satisfied after 21 iterations ***

         #    Occupation            Energy/Eh            Energy/eV
      -------------------------------------------------------------
         1        2.0000           -0.8026145             -21.8403
       ...           ...                  ...                  ...
        29        2.0000           -0.4435711             -12.0702
        30        2.0000           -0.4266870             -11.6107
        31        2.0000           -0.4182034             -11.3799
        32        2.0000           -0.4041444             -10.9973
        33        2.0000           -0.3917972             -10.6613
        34        2.0000           -0.3713244             -10.1043
        35        1.5647           -0.3350999              -9.1185 (HOMO)
        36        0.4353           -0.3326692              -9.0524 (LUMO)
        37                         -0.2301158              -6.2618
        38                         -0.1904801              -5.1832
        39                         -0.1636774              -4.4539
        40                         -0.1339056              -3.6438
       ...                                ...                  ...
        63                          1.2819740              34.8843
      -------------------------------------------------------------
                  HL-Gap            0.0024308 Eh            0.0661 eV
             Fermi-level           -0.3338845 Eh           -9.0855 eV

 SCC (total)                   0 d,  0 h,  0 min,  0.127 sec
 SCC setup                      ...        0 min,  0.007 sec (  5.692%)
 Dispersion                     ...        0 min,  0.001 sec (  1.059%)
 classical contributions        ...        0 min,  0.000 sec (  0.107%)
 integral evaluation            ...        0 min,  0.016 sec ( 12.464%)
 iterations                     ...        0 min,  0.069 sec ( 54.515%)
 molecular gradient             ...        0 min,  0.031 sec ( 24.592%)
 printout                       ...        0 min,  0.002 sec (  1.480%)

         :::::::::::::::::::::::::::::::::::::::::::::::::::::
         ::                     SUMMARY                     ::
         :::::::::::::::::::::::::::::::::::::::::::::::::::::
         :: total energy             -38.954459700725 Eh    ::
         :: gradient norm              0.743334267809 Eh/a0 ::
         :: HOMO-LUMO gap              0.066145022352 eV    ::
         ::.................................................::
         :: SCC energy               -39.640159342704 Eh    ::
         :: -> isotropic ES            0.083507478648 Eh    ::
         :: -> anisotropic ES         -0.000074281523 Eh    ::
         :: -> anisotropic XC          0.005966927989 Eh    ::
         :: -> dispersion             -0.020379887368 Eh    ::
         :: repulsion energy           0.685699641979 Eh    ::
         :: add. restraining           0.000000000000 Eh    ::
         :: total charge               0.000000000000 e     ::
         :::::::::::::::::::::::::::::::::::::::::::::::::::::


Property printout bound to 'properties.out'

           -------------------------------------------------
          | TOTAL ENERGY              -38.954459700725 Eh   |
          | GRADIENT NORM               0.743334267809 Eh/α |
          | HOMO-LUMO GAP               0.066145022352 eV   |
           -------------------------------------------------

------------------------------------------------------------------------
 * finished run on 2025/10/23 at 15:17:52.649     
------------------------------------------------------------------------
 total:
 * wall-time:     0 d,  0 h,  0 min,  0.214 sec
 *  cpu-time:     0 d,  0 h,  0 min,  0.147 sec
 * ratio c/w:     0.685 speedup
 SCF:
 * wall-time:     0 d,  0 h,  0 min,  0.128 sec
 *  cpu-time:     0 d,  0 h,  0 min,  0.098 sec
 * ratio c/w:     0.767 speedup


-------------------------   --------------------
FINAL SINGLE POINT ENERGY       -38.954459700720
-------------------------   --------------------


-------------
DIPOLE MOMENT
-------------
                                X             Y             Z
Total Dipole Moment    :      0.18500       1.49900      -0.00000
                        -----------------------------------------
Magnitude (a.u.)       :      1.51037
Magnitude (Debye)      :      3.83906


------------------
CARTESIAN GRADIENT
------------------

   1   C   :    0.031289388   -0.006555541    0.000001926
   2   C   :    0.010932306   -0.131815232   -0.000034409
   3   C   :    0.020691618    0.031838838   -0.000004986
   4   C   :    0.048046553   -0.008839642    0.000003889
   5   C   :    0.078568046   -0.096284723   -0.000014340
   6   C   :   -0.038753647   -0.098809497    0.000032238
   7   C   :    0.035785697   -0.008198093   -0.000016964
   8   C   :   -0.045714188   -0.036853435    0.000005446
   9   C   :   -0.054730619    0.099404430    0.000009058
  10   N   :    0.191845477   -0.284163157   -0.000001509
  11   N   :    0.014913031   -0.247067641   -0.000024217
  12   B   :   -0.214222597    0.163278280    0.000023409
  13   F   :   -0.105819905    0.361136201   -0.000006912
  14   F   :    0.023981040    0.297820371   -0.000000935
  15   H   :   -0.033621440    0.006008826    0.000004885
  16   H   :   -0.004431259    0.014124315    0.000008798
  17   H   :    0.001337614   -0.034236424   -0.000004007
  18   H   :    0.001213461    0.002448434    0.000006049
  19   H   :    0.008398863   -0.000293499    0.000007794
  20   H   :    0.024873929   -0.013899048    0.000003882
  21   H   :    0.005416634   -0.009043763    0.000000904

Difference to translation invariance:
           :    0.0000000000    0.0000000000    0.0000000000

Difference to rotation invariance:
           :    0.0000001277    0.0000001869   -0.0000000048

Norm of the Cartesian gradient     ...    0.7433342678
RMS gradient                       ...    0.0936513149
MAX gradient                       ...    0.3611362013
------------------------------------------------------------------------------
                         ORCA GEOMETRY RELAXATION STEP
------------------------------------------------------------------------------

Reading the OPT-File                    .... done
Getting information on internals        .... done
Copying old internal coords+grads       .... done
Making the new internal coordinates     .... (2022 redundants) done
Validating the new internal coordinates .... (2022 redundants) done
Calculating the B-matrix                .... done
Calculating the G,G- and P matrices     .... done
Transforming gradient to internals      .... done
Projecting the internal gradient        .... done
Number of atoms                         ....  21
Number of internal coordinates          .... 162
Current Energy                          ....   -38.954459701 Eh
Current gradient norm                   ....     0.743334268 Eh/bohr
Maximum allowed component of the step   ....  0.300
Current trust radius                    ....  0.300
Evaluating the initial hessian          ....  (Almloef) done
Projecting the Hessian                  .... done
Forming the augmented Hessian           .... done
Diagonalizing the augmented Hessian     .... done
Last element of RFO vector              ....  0.818356724
Lowest eigenvalues of augmented Hessian:
 -0.349622915  0.021074665  0.024962708  0.025537783  0.027278619
Length of the computed step             ....  0.702273936
Warning: the length of the step is outside the trust region - taking restricted step instead
The input lambda is                     ....     0.020075
   iter:   5  x=   -1.088113  g=    0.310192 f(x)=     0.090025
   iter:  10  x=   -1.285668  g=    0.106944 f(x)=     0.000000
The output lambda is                    ....    -1.285668 (11 iterations)
The final length of the internal step   ....  0.300000000
Converting the step to Cartesian space:
 Initial RMS(Int)=    0.0235702260
Transforming coordinates:
 Iter   0:  RMS(Cart)=    0.0491622984 RMS(Int)=    0.0235762123
done
Storing new coordinates                 .... done

                                .--------------------.
          ----------------------|Geometry convergence|-------------------------
          Item                value                   Tolerance       Converged
          ---------------------------------------------------------------------
          RMS gradient        0.0409917023            0.0001000000      NO
          MAX gradient        0.2273647144            0.0003000000      NO
          RMS step            0.0235702260            0.0020000000      NO
          MAX step            0.1450271325            0.0040000000      NO
          -------------------------------------------------------------------------
          ........................................................
          Max(Bonds)      0.0767      Max(Angles)    2.57
          Max(Dihed)        0.00      Max(Improp)    0.00
          ---------------------------------------------------------------------

The optimization has not yet converged - more geometry cycles are needed


    ---------------------------------------------------------------------------
                         Redundant Internal Coordinates
                            (Angstroem and degrees)

        Definition                    Value    dE/dq     Step     New-Value
    ----------------------------------------------------------------------------
     1. B(C   1,C   0)                1.4000 -0.018835  0.0042    1.4042   
     2. B(C   2,C   1)                1.3770 -0.023890  0.0068    1.3838   
     3. B(C   3,C   2)                1.4180 -0.002264 -0.0005    1.4175   
     4. B(C   4,C   3)                1.3770 -0.024220  0.0057    1.3827   
     5. B(C   5,C   0)                1.3330 -0.078080  0.0183    1.3513   
     6. B(C   6,C   5)                1.4348 -0.009623  0.0021    1.4369   
     7. B(C   7,C   6)                1.3330 -0.074092  0.0186    1.3516   
     8. B(C   8,C   7)                1.3145 -0.083692  0.0213    1.3358   
     9. B(N   9,C   4)                1.3640 -0.026496  0.0110    1.3750   
    10. B(N   9,C   1)                1.3064 -0.087632  0.0245    1.3309   
    11. B(N  10,C   8)                1.2800 -0.088674  0.0228    1.3028   
    12. B(N  10,C   5)                1.3250 -0.122291  0.0317    1.3566   
    13. B(B  11,N  10)                1.4611 -0.060577  0.0213    1.4823   
    14. B(B  11,N   9)                1.2254 -0.218300  0.0546    1.2800   
    15. B(F  12,C   4)                1.7844 -0.180348  0.0617    1.8461   
    16. B(F  12,B  11)                1.4429 -0.088512  0.0266    1.4695   
    17. B(F  12,N   9)                1.6089 -0.186915  0.0610    1.6699   
    18. B(F  13,B  11)                1.4114 -0.064713  0.0206    1.4320   
    19. B(F  13,N  10)                1.6217 -0.227365  0.0767    1.6985   
    20. B(H  14,C   7)                1.0327 -0.032747  0.0100    1.0428   
    21. B(H  15,C   8)                1.0629 -0.014683  0.0046    1.0675   
    22. B(H  16,C   6)                1.0311 -0.032399  0.0099    1.0410   
    23. B(H  17,C   2)                1.0709  0.001964 -0.0006    1.0703   
    24. B(H  18,C   3)                1.0700 -0.008393  0.0027    1.0727   
    25. B(H  19,C   4)                1.0700  0.005888 -0.0019    1.0682   
    26. B(H  20,C   0)                1.0636 -0.009167  0.0029    1.0665   
    27. A(C   5,C   0,H  20)          120.42  0.005953   -0.13    120.29   
    28. A(C   1,C   0,C   5)          116.44 -0.022370    0.62    117.06   
    29. A(C   1,C   0,H  20)          123.15  0.016417   -0.50    122.65   
    30. A(C   0,C   1,N   9)          123.94  0.011622   -0.30    123.64   
    31. A(C   0,C   1,C   2)          122.48 -0.038331    1.03    123.51   
    32. A(C   2,C   1,N   9)          113.59  0.026709   -0.73    112.86   
    33. A(C   1,C   2,H  17)          130.75  0.011608   -0.40    130.35   
    34. A(C   3,C   2,H  17)          130.76  0.015453   -0.54    130.23   
    35. A(C   1,C   2,C   3)           98.49 -0.027061    0.94     99.43   
    36. A(C   2,C   3,H  18)          122.48 -0.000734    0.06    122.54   
    37. A(C   4,C   3,H  18)          122.42 -0.001606    0.09    122.51   
    38. A(C   2,C   3,C   4)          115.10  0.002340   -0.16    114.95   
    39. A(C   3,C   4,F  12)          160.96 -0.034962    1.22    162.18   
    40. A(F  12,C   4,H  19)           69.67  0.000480    0.02     69.68   
    41. A(N   9,C   4,F  12)           59.70 -0.022851    0.69     60.39   
    42. A(N   9,C   4,H  19)          129.37 -0.022371    0.71    130.08   
    43. A(C   3,C   4,N   9)          101.26 -0.012111    0.53    101.79   
    44. A(C   3,C   4,H  19)          129.37  0.034482   -1.24    128.13   
    45. A(C   6,C   5,N  10)          111.87  0.004377   -0.14    111.74   
    46. A(C   0,C   5,N  10)          123.78 -0.008606    0.22    123.99   
    47. A(C   0,C   5,C   6)          124.35  0.004228   -0.08    124.27   
    48. A(C   5,C   6,C   7)          102.38 -0.021700    0.61    102.99   
    49. A(C   7,C   6,H  16)          124.32 -0.000008    0.07    124.39   
    50. A(C   5,C   6,H  16)          133.30  0.021708   -0.68    132.62   
    51. A(C   6,C   7,C   8)          106.65 -0.007070    0.22    106.87   
    52. A(C   8,C   7,H  14)          130.79  0.013004   -0.44    130.35   
    53. A(C   6,C   7,H  14)          122.57 -0.005934    0.21    122.78   
    54. A(C   7,C   8,N  10)          117.27  0.027265   -0.78    116.48   
    55. A(N  10,C   8,H  15)          121.87 -0.011743    0.33    122.20   
    56. A(C   7,C   8,H  15)          120.87 -0.015522    0.46    121.32   
    57. A(B  11,N   9,F  12)           59.38  0.045219   -1.48     57.90   
    58. A(C   4,N   9,F  12)           73.25 -0.017807    0.71     73.96   
    59. A(C   1,N   9,C   4)          111.56  0.010123   -0.58    110.99   
    60. A(C   4,N   9,B  11)          132.63  0.027412   -0.77    131.86   
    61. A(C   1,N   9,B  11)          115.81 -0.037536    1.35    117.16   
    62. A(C   8,N  10,F  13)           92.11 -0.013303    0.45     92.55   
    63. A(C   5,N  10,F  13)          166.06  0.016175   -0.53    165.53   
    64. A(C   5,N  10,C   8)          101.83 -0.002872    0.08    101.92   
    65. A(C   8,N  10,B  11)          146.30  0.018107   -0.77    145.53   
    66. A(C   5,N  10,B  11)          111.87 -0.015235    0.68    112.55   
    67. A(B  11,N  10,F  13)           54.19  0.031410   -1.21     52.98   
    68. A(N  10,B  11,F  12)          158.17 -0.064435    1.75    159.92   
    69. A(N   9,B  11,F  12)           73.66 -0.007689    0.82     74.48   
    70. A(N   9,B  11,N  10)          128.17  0.072124   -2.57    125.60   
    71. A(F  12,B  11,F  13)           89.45  0.005575   -0.81     88.63   
    72. A(N  10,B  11,F  13)           68.72 -0.070010    2.57     71.29   
    73. A(N   9,B  11,F  13)          163.11 -0.002115    0.01    163.11   
    74. A(N   9,F  12,B  11)           46.96 -0.037530    0.66     47.62   
    75. A(C   4,F  12,B  11)           94.01  0.003128   -0.74     93.27   
    76. A(C   4,F  12,N   9)           47.05  0.040658   -1.40     45.65   
    77. A(N  10,F  13,B  11)           57.09  0.038600   -1.36     55.73   
    78. D(N   9,C   1,C   0,C   5)      0.02 -0.000001   -0.00      0.02   
    79. D(N   9,C   1,C   0,H  20)   -179.98  0.000002   -0.00   -179.98   
    80. D(C   2,C   1,C   0,H  20)     -0.00 -0.000004    0.00     -0.00   
    81. D(C   2,C   1,C   0,C   5)    180.00 -0.000006    0.00    180.00   
    82. D(C   3,C   2,C   1,N   9)     -0.01  0.000003   -0.00     -0.01   
    83. D(H  17,C   2,C   1,N   9)    179.99 -0.000008    0.00    179.99   
    84. D(C   3,C   2,C   1,C   0)   -179.99  0.000010   -0.00   -179.99   
    85. D(H  17,C   2,C   1,C   0)      0.01 -0.000002    0.00      0.01   
    86. D(H  18,C   3,C   2,H  17)     -0.01  0.000001   -0.00     -0.01   
    87. D(H  18,C   3,C   2,C   1)    179.99 -0.000010    0.00    179.99   
    88. D(C   4,C   3,C   2,H  17)    179.99 -0.000001    0.00    179.99   
    89. D(C   4,C   3,C   2,C   1)     -0.01 -0.000013    0.00     -0.01   
    90. D(N   9,C   4,C   3,H  18)   -179.98  0.000007   -0.00   -179.98   
    91. D(F  12,C   4,C   3,C   2)      0.04  0.000001   -0.00      0.04   
    92. D(N   9,C   4,C   3,C   2)      0.02  0.000010   -0.00      0.02   
    93. D(F  12,C   4,C   3,H  18)   -179.96 -0.000001    0.00   -179.96   
    94. D(H  19,C   4,C   3,C   2)   -179.98  0.000003   -0.00   -179.98   
    95. D(C   6,C   5,C   0,C   1)    179.97 -0.000003    0.00    179.97   
    96. D(C   6,C   5,C   0,H  20)     -0.03 -0.000005    0.00     -0.03   
    97. D(N  10,C   5,C   0,H  20)   -180.00  0.000000   -0.00   -180.00   
    98. D(N  10,C   5,C   0,C   1)      0.00  0.000003   -0.00      0.00   
    99. D(H  16,C   6,C   5,N  10)    179.99 -0.000006    0.00    179.99   
   100. D(H  16,C   6,C   5,C   0)      0.01  0.000002   -0.00      0.01   
   101. D(C   7,C   6,C   5,N  10)     -0.01 -0.000007    0.00     -0.01   
   102. D(C   7,C   6,C   5,C   0)   -179.99  0.000002   -0.00   -179.99   
   103. D(H  14,C   7,C   6,H  16)     -0.00  0.000001   -0.00     -0.00   
   104. D(H  14,C   7,C   6,C   5)    180.00  0.000001   -0.00    180.00   
   105. D(C   8,C   7,C   6,H  16)    180.00  0.000002   -0.00    180.00   
   106. D(C   8,C   7,C   6,C   5)     -0.00  0.000002   -0.00     -0.00   
   107. D(N  10,C   8,C   7,H  14)   -179.98  0.000007   -0.00   -179.98   
   108. D(N  10,C   8,C   7,C   6)      0.02  0.000005   -0.00      0.02   
   109. D(H  15,C   8,C   7,H  14)      0.02  0.000002   -0.00      0.02   
   110. D(H  15,C   8,C   7,C   6)   -179.98  0.000000   -0.00   -179.98   
   111. D(B  11,N   9,C   4,F  12)      0.02  0.000023   -0.00      0.02   
   112. D(B  11,N   9,C   4,C   3)   -179.98  0.000009   -0.00   -179.98   
   113. D(C   1,N   9,C   4,H  19)    179.98 -0.000002    0.00    179.98   
   114. D(B  11,N   9,C   1,C   2)    179.99  0.000016   -0.00    179.99   
   115. D(C   1,N   9,C   4,C   3)     -0.02 -0.000009    0.00     -0.02   
   116. D(B  11,N   9,C   1,C   0)     -0.03 -0.000001    0.00     -0.03   
   117. D(C   4,N   9,C   1,C   2)      0.02  0.000007   -0.00      0.02   
   118. D(C   4,N   9,C   1,C   0)   -180.00 -0.000010    0.00   -180.00   
   119. D(B  11,N   9,C   4,H  19)      0.02  0.000016   -0.00      0.01   
   120. D(C   1,N   9,C   4,F  12)    179.99  0.000005   -0.00    179.99   
   121. D(F  13,N  10,C   8,C   7)    179.99 -0.000022    0.00    179.99   
   122. D(B  11,N  10,C   8,H  15)     -0.01 -0.000010    0.00     -0.01   
   123. D(B  11,N  10,C   8,C   7)    179.99 -0.000015    0.00    179.99   
   124. D(C   5,N  10,C   8,H  15)    179.98 -0.000008    0.00    179.98   
   125. D(C   5,N  10,C   8,C   7)     -0.02 -0.000013    0.00     -0.02   
   126. D(F  13,N  10,C   5,C   0)     -0.05 -0.000012    0.00     -0.05   
   127. D(B  11,N  10,C   5,C   6)   -179.99  0.000011   -0.00   -179.99   
   128. D(B  11,N  10,C   5,C   0)     -0.01  0.000006   -0.00     -0.01   
   129. D(C   8,N  10,C   5,C   6)      0.02  0.000005   -0.00      0.02   
   130. D(C   8,N  10,C   5,C   0)    179.99  0.000001   -0.00    179.99   
   131. D(N   9,B  11,N  10,F  13)    179.99 -0.000009    0.00    179.99   
   132. D(N   9,B  11,N  10,C   8)    179.99 -0.000016    0.00    179.99   
   133. D(N   9,B  11,N  10,C   5)      0.00 -0.000020    0.00      0.00   
   134. D(F  13,B  11,N   9,C   1)    179.99  0.000008   -0.00    179.99   
   135. D(F  12,B  11,N   9,C   4)     -0.03 -0.000011    0.00     -0.03   
   136. D(F  12,B  11,N   9,C   1)   -179.99 -0.000007    0.00   -179.99   
   137. D(N  10,B  11,N   9,F  12)   -179.99  0.000026   -0.00   -179.99   
   138. D(N  10,B  11,N   9,C   4)    179.98  0.000015   -0.00    179.98   
   139. D(F  12,B  11,N  10,C   5)   -179.98 -0.000010    0.00   -179.98   
   140. D(N  10,B  11,N   9,C   1)      0.02  0.000018   -0.00      0.02   
   141. D(F  12,B  11,N  10,F  13)      0.01  0.000002   -0.00      0.01   
   142. D(F  12,B  11,N  10,C   8)      0.01 -0.000006    0.00      0.01   
   143. D(N   9,F  12,B  11,F  13)    179.99  0.000004   -0.00    179.99   
   144. D(N   9,F  12,B  11,N  10)    179.98  0.000006   -0.00    179.98   
   145. D(C   4,F  12,B  11,N  10)    180.00  0.000017   -0.00    180.00   
   146. D(C   4,F  12,B  11,N   9)      0.02  0.000011   -0.00      0.01   
   147. D(B  11,F  12,N   9,C   4)    179.98 -0.000001    0.00    179.98   
   148. D(C   4,F  12,N   9,B  11)   -179.98  0.000001   -0.00   -179.98   
   149. D(B  11,F  12,C   4,H  19)    179.98  0.000001    0.00    179.98   
   150. D(B  11,F  12,C   4,N   9)     -0.02  0.000009   -0.00     -0.02   
   151. D(B  11,F  12,C   4,C   3)     -0.04  0.000011   -0.00     -0.04   
   152. D(N   9,F  12,C   4,H  19)    179.99 -0.000008    0.00    179.99   
   153. D(N   9,F  12,C   4,C   3)     -0.03  0.000003   -0.00     -0.03   
   154. D(B  11,F  12,C   1,C   2)    180.00  0.000009   -0.00    180.00   
   155. D(C   4,F  12,B  11,F  13)   -179.99  0.000014   -0.00   -179.99   
   156. D(B  11,F  12,C   1,C   0)     -0.01 -0.000007    0.00     -0.01   
   157. D(C   4,F  12,C   1,C   2)      0.01  0.000012   -0.00      0.01   
   158. D(C   4,F  12,C   1,C   0)    180.00 -0.000004    0.00    180.00   
   159. D(N  10,F  13,B  11,F  12)   -180.00  0.000011   -0.00   -180.00   
   160. D(N  10,F  13,B  11,N   9)   -179.97 -0.000005    0.00   -179.97   
   161. D(B  11,F  13,N  10,C   8)    180.00 -0.000003    0.00    180.00   
   162. D(B  11,F  13,N  10,C   5)      0.04  0.000009   -0.00      0.04   
    ----------------------------------------------------------------------------

Geometry step timings:
Preparation and reading OPT file:      0.000 s ( 0.438 %)
Internal coordinates            :      0.000 s ( 0.666 %)
B/P matrices and projection     :      0.006 s (24.576 %)
Hessian update/contruction      :      0.003 s (12.067 %)
Making the step                 :      0.012 s (46.727 %)
Converting the step to Cartesian:      0.000 s ( 1.854 %)
Storing new data                :      0.000 s ( 0.506 %)
Checking convergence            :      0.000 s ( 0.659 %)
Final printing                  :      0.003 s (12.494 %)
Total time                      :      0.026 s

Time for energy+gradient        :      0.237 s
Time for complete geometry iter :      0.266 s

         *************************************************************
         *                GEOMETRY OPTIMIZATION CYCLE   2            *
         *************************************************************
---------------------------------
CARTESIAN COORDINATES (ANGSTROEM)
---------------------------------
  C    -1.689119    4.860216   -0.000149
  C    -2.852288    4.073791   -0.000316
  C    -4.131454    4.601645   -0.000285
  C    -4.879288    3.397529   -0.000259
  C    -4.121784    2.240781   -0.000405
  C    -0.506123    4.207274   -0.000168
  C     0.776009    4.855945   -0.000538
  C     1.641596    3.817941   -0.000744
  C     0.908150    2.701458   -0.000455
  N    -2.841987    2.742977   -0.000129
  N    -0.385475    2.855951   -0.000418
  B    -1.698413    2.167600   -0.000356
  F    -2.686167    1.080016   -0.000226
  F    -0.661561    1.179968   -0.000403
  H     2.676472    3.945866   -0.001067
  H     1.365706    1.736980   -0.000278
  H     1.059170    5.857687   -0.000643
  H    -4.460900    5.619969   -0.000287
  H    -5.951904    3.384355   -0.000135
  H    -4.463315    1.228690   -0.000670
  H    -1.715233    5.926381   -0.000014

----------------------------
CARTESIAN COORDINATES (A.U.)
----------------------------
  NO LB    ZA    FRAG    MASS        X           Y           Z
   0 C   6.0000    0    12.011   -3.191972    9.184476   -0.000281
   1 C   6.0000    0    12.011   -5.390044    7.698350   -0.000596
   2 C   6.0000    0    12.011   -7.807316    8.695849   -0.000538
   3 C   6.0000    0    12.011   -9.220518    6.420399   -0.000490
   4 C   6.0000    0    12.011   -7.789042    4.234462   -0.000764
   5 C   6.0000    0    12.011   -0.956434    7.950596   -0.000317
   6 C   6.0000    0    12.011    1.466445    9.176406   -0.001016
   7 C   6.0000    0    12.011    3.102167    7.214862   -0.001406
   8 C   6.0000    0    12.011    1.716155    5.105016   -0.000861
   9 N   7.0000    0    14.007   -5.370577    5.183475   -0.000245
  10 N   7.0000    0    14.007   -0.728442    5.396966   -0.000790
  11 B   5.0000    0    10.810   -3.209536    4.096170   -0.000673
  12 F   9.0000    0    18.998   -5.076120    2.040934   -0.000427
  13 F   9.0000    0    18.998   -1.250168    2.229816   -0.000762
  14 H   1.0000    0     1.008    5.057800    7.456606   -0.002016
  15 H   1.0000    0     1.008    2.580810    3.282417   -0.000525
  16 H   1.0000    0     1.008    2.001540   11.069423   -0.001214
  17 H   1.0000    0     1.008   -8.429879   10.620202   -0.000543
  18 H   1.0000    0     1.008  -11.247469    6.395504   -0.000254
  19 H   1.0000    0     1.008   -8.434443    2.321888   -0.001265
  20 H   1.0000    0     1.008   -3.241320   11.199238   -0.000026

      -----------------------------------------------------------      
     |                   =====================                   |     
     |                           x T B                           |     
     |                   =====================                   |     
     |                         S. Grimme                         |     
     |          Mulliken Center for Theoretical Chemistry        |     
     |                    University of Bonn                     |     
      -----------------------------------------------------------      

   * xtb version 6.7.1 (edcfbbe) compiled by 'albert@albert-system' on 2024-07-22

   xtb is free software: you can redistribute it and/or modify it under
   the terms of the GNU Lesser General Public License as published by
   the Free Software Foundation, either version 3 of the License, or
   (at your option) any later version.
   
   xtb is distributed in the hope that it will be useful,
   but WITHOUT ANY WARRANTY; without even the implied warranty of
   MERCHANTABILITY or FITNESS FOR A PARTICULAR PURPOSE.  See the
   GNU Lesser General Public License for more details.
   
   Cite this work as:
   * C. Bannwarth, E. Caldeweyher, S. Ehlert, A. Hansen, P. Pracht,
     J. Seibert, S. Spicher, S. Grimme, WIREs Comput. Mol. Sci., 2020, 11,
     e01493. DOI: 10.1002/wcms.1493
   
   for GFN2-xTB:
   * C. Bannwarth, S. Ehlert and S. Grimme., J. Chem. Theory Comput., 2019,
     15, 1652-1671. DOI: 10.1021/acs.jctc.8b01176
   for GFN1-xTB:
   * S. Grimme, C. Bannwarth, P. Shushkov, J. Chem. Theory Comput., 2017,
     13, 1989-2009. DOI: 10.1021/acs.jctc.7b00118
   for GFN0-xTB:
   * P. Pracht, E. Caldeweyher, S. Ehlert, S. Grimme, ChemRxiv, 2019, preprint.
     DOI: 10.26434/chemrxiv.8326202.v1
   for GFN-FF:
   * S. Spicher and S. Grimme, Angew. Chem. Int. Ed., 2020, 59, 15665-15673.
     DOI: 10.1002/anie.202004239
   
   for ALPB and GBSA implicit solvation:
   * S. Ehlert, M. Stahn, S. Spicher, S. Grimme, J. Chem. Theory Comput.,
     2021, 17, 4250-4261. DOI: 10.1021/acs.jctc.1c00471
   
   for ddCOSMO and CPCM-X implicit solvation:
   * M. Stahn, S. Ehlert, S. Grimme, J. Phys. Chem. A,
     2023, XX, XXXX-XXXX. DOI: 10.1021/acs.jpca.3c04382
   
   for DFT-D4:
   * E. Caldeweyher, C. Bannwarth and S. Grimme, J. Chem. Phys., 2017,
     147, 034112. DOI: 10.1063/1.4993215
   * E. Caldeweyher, S. Ehlert, A. Hansen, H. Neugebauer, S. Spicher,
     C. Bannwarth and S. Grimme, J. Chem. Phys., 2019, 150, 154122.
     DOI: 10.1063/1.5090222
   * E. Caldeweyher, J.-M. Mewes, S. Ehlert and S. Grimme, Phys. Chem. Chem. Phys.
     2020, 22, 8499-8512. DOI: 10.1039/D0CP00502A
   
   for sTDA-xTB:
   * S. Grimme and C. Bannwarth, J. Chem. Phys., 2016, 145, 054103.
     DOI: 10.1063/1.4959605
   
   in the mass-spec context:
   * V. Asgeirsson, C. Bauer and S. Grimme, Chem. Sci., 2017, 8, 4879.
     DOI: 10.1039/c7sc00601b
   * J. Koopman and S. Grimme, ACS Omega 2019, 4, 12, 15120-15133.
     DOI: 10.1021/acsomega.9b02011
   
   for metadynamics refer to:
   * S. Grimme, J. Chem. Theory Comput., 2019, 155, 2847-2862
     DOI: 10.1021/acs.jctc.9b00143
   
   for SPH calculations refer to:
   * S. Spicher and S. Grimme, J. Chem. Theory Comput., 2021, 17, 1701-1714
     DOI: 10.1021/acs.jctc.0c01306
   
   for ONIOM refer to:
   * C. Plett, A. Katbashev, S. Ehlert, S. Grimme, M. Bursch,
     Phys. Chem. Chem. Phys., 2023, 25, 17860-17868. DOI: 10.1039/D3CP02178E
   
   for DIPRO refer to:
   * J. Kohn, N. Gildemeister, S. Grimme, D. Fazzi, A. Hansen,
     J. Chem. Phys., 2023, just accepted.
   
   for PTB refer to:
   * S. Grimme, M. Mueller, A. Hansen, J. Chem. Phys., 2023, 158, 124111.
     DOI: 10.1063/5.0137838
   
   with help from (in alphabetical order)
   P. Atkinson, C. Bannwarth, F. Bohle, G. Brandenburg, E. Caldeweyher
   M. Checinski, S. Dohm, S. Ehlert, S. Ehrlich, I. Gerasimov, C. Hölzer
   A. Katbashev, J. Kohn, J. Koopman, C. Lavigne, S. Lehtola, F. März, M. Müller,
   F. Musil, H. Neugebauer, J. Pisarek, C. Plett, P. Pracht, F. Pultar,
   J. Seibert, P. Shushkov, S. Spicher, M. Stahn, M. Steiner, T. Strunk,
   J. Stückrath, T. Rose, and J. Unsleber
   
 * started run on 2025/10/23 at 15:17:52.694     
   ID    Z sym.   atoms
    1    6 C      1-9
    2    7 N      10, 11
    3    5 B      12
    4    9 F      13, 14
    5    1 H      15-21

           -------------------------------------------------
          |                Calculation Setup                |
           -------------------------------------------------

          program call               : otool_xtb Bod_xtb_opt_XTB.xyz --grad -c 0 -u 0 -P 1 --namespace Bod_xtb_opt --input Bod_xtb_opt_XTB.input.tmp --acc 0.200000
          calculation namespace      : Bod_xtb_opt
          coordinate file            : Bod_xtb_opt_XTB.xyz
          omp threads                :                     1


           -------------------------------------------------
          |                 G F N 2 - x T B                 |
           -------------------------------------------------

        Reference                      10.1021/acs.jctc.8b01176
      * Hamiltonian:
        H0-scaling (s, p, d)           1.850000    2.230000    2.230000
        zeta-weighting                 0.500000
      * Dispersion:
        s8                             2.700000
        a1                             0.520000
        a2                             5.000000
        s9                             5.000000
      * Repulsion:
        kExp                           1.500000    1.000000
        rExp                           1.000000
      * Coulomb:
        alpha                          2.000000
        third order                    shell-resolved
        anisotropic                    true
        a3                             3.000000
        a5                             4.000000
        cn-shift                       1.200000
        cn-exp                         4.000000
        max-rad                        5.000000

q/qsh data taken from xtbrestart
CAMM data taken from xtbrestart

          ...................................................
          :                      SETUP                      :
          :.................................................:
          :  # basis functions                  63          :
          :  # atomic orbitals                  63          :
          :  # shells                           35          :
          :  # electrons                        70          :
          :  max. iterations                   250          :
          :  Hamiltonian                  GFN2-xTB          :
          :  restarted?                       true          :
          :  GBSA solvation                  false          :
          :  PC potential                    false          :
          :  electronic temp.          300.0000000     K    :
          :  accuracy                    0.2000000          :
          :  -> integral cutoff          0.3198970E+02      :
          :  -> integral neglect         0.2000000E-08      :
          :  -> SCF convergence          0.2000000E-06 Eh   :
          :  -> wf. convergence          0.2000000E-04 e    :
          :  Broyden damping             0.4000000          :
          :  net charge                          0          :
          :  unpaired electrons                  0          :
          ...................................................

 iter      E             dE          RMSdq      gap      omega  full diag
   1    -39.6825417 -0.396825E+02  0.107E+00    0.69       0.0  T
   2    -39.3516954  0.330846E+00  0.336E+00    0.23       1.0  T
   3    -39.6873912 -0.335696E+00  0.865E-01    0.59       1.0  T
   4    -39.6882421 -0.850862E-03  0.742E-01    0.49       1.0  T
   5    -39.6913158 -0.307375E-02  0.591E-01    0.39       1.0  T
   6    -39.6939815 -0.266567E-02  0.476E-01    0.28       1.0  T
   7    -39.6951306 -0.114912E-02  0.403E-01    0.23       1.0  T
   8    -39.6187309  0.763997E-01  0.171E+00    0.01       1.0  T
   9    -39.6975923 -0.788614E-01  0.219E-01    0.16       1.0  T
  10    -39.6983703 -0.778024E-03  0.118E-01    0.14       1.0  T
  11    -39.6986396 -0.269216E-03  0.606E-02    0.13       1.0  T
  12    -39.6986859 -0.463141E-04  0.425E-02    0.13       1.0  T
  13    -39.6986965 -0.106123E-04  0.377E-02    0.12       1.0  T
  14    -39.6987155 -0.189654E-04  0.262E-02    0.12       1.0  T
  15    -39.6987326 -0.171591E-04  0.520E-03    0.12       4.2  T
  16    -39.6987333 -0.659291E-06  0.113E-03    0.12      19.3  T
  17    -39.6987333  0.134762E-07  0.135E-03    0.12      16.1  T
  18    -39.6987333 -0.340645E-07  0.714E-04    0.12      30.6  T
  19    -39.6987333 -0.900215E-08  0.396E-04    0.12      55.1  T
  20    -39.6987333 -0.412526E-08  0.211E-05    0.12    1034.7  T
  21    -39.6987333  0.136765E-09  0.750E-05    0.12     291.1  T

   *** convergence criteria satisfied after 21 iterations ***

         #    Occupation            Energy/Eh            Energy/eV
      -------------------------------------------------------------
         1        2.0000           -0.7748847             -21.0857
       ...           ...                  ...                  ...
        29        2.0000           -0.4409058             -11.9977
        30        2.0000           -0.4236806             -11.5289
        31        2.0000           -0.4140015             -11.2656
        32        2.0000           -0.3961802             -10.7806
        33        2.0000           -0.3953269             -10.7574
        34        2.0000           -0.3731862             -10.1549
        35        1.8166           -0.3430145              -9.3339 (HOMO)
        36        0.1834           -0.3386578              -9.2153 (LUMO)
        37                         -0.2329089              -6.3378
        38                         -0.2029338              -5.5221
        39                         -0.1721928              -4.6856
        40                         -0.1464995              -3.9865
       ...                                ...                  ...
        63                          1.0622582              28.9055
      -------------------------------------------------------------
                  HL-Gap            0.0043567 Eh            0.1186 eV
             Fermi-level           -0.3408361 Eh           -9.2746 eV

 SCC (total)                   0 d,  0 h,  0 min,  0.044 sec
 SCC setup                      ...        0 min,  0.000 sec (  0.904%)
 Dispersion                     ...        0 min,  0.000 sec (  0.639%)
 classical contributions        ...        0 min,  0.000 sec (  0.115%)
 integral evaluation            ...        0 min,  0.006 sec ( 14.063%)
 iterations                     ...        0 min,  0.025 sec ( 57.357%)
 molecular gradient             ...        0 min,  0.012 sec ( 26.391%)
 printout                       ...        0 min,  0.000 sec (  0.438%)

         :::::::::::::::::::::::::::::::::::::::::::::::::::::
         ::                     SUMMARY                     ::
         :::::::::::::::::::::::::::::::::::::::::::::::::::::
         :: total energy             -39.088863980247 Eh    ::
         :: gradient norm              0.584834391510 Eh/a0 ::
         :: HOMO-LUMO gap              0.118550605983 eV    ::
         ::.................................................::
         :: SCC energy               -39.698718914780 Eh    ::
         :: -> isotropic ES            0.095700515777 Eh    ::
         :: -> anisotropic ES         -0.001884926274 Eh    ::
         :: -> anisotropic XC          0.009820029764 Eh    ::
         :: -> dispersion             -0.020704364594 Eh    ::
         :: repulsion energy           0.609854934533 Eh    ::
         :: add. restraining           0.000000000000 Eh    ::
         :: total charge              -0.000000000000 e     ::
         :::::::::::::::::::::::::::::::::::::::::::::::::::::


Property printout bound to 'properties.out'

           -------------------------------------------------
          | TOTAL ENERGY              -39.088863980247 Eh   |
          | GRADIENT NORM               0.584834391510 Eh/α |
          | HOMO-LUMO GAP               0.118550605983 eV   |
           -------------------------------------------------

------------------------------------------------------------------------
 * finished run on 2025/10/23 at 15:17:52.757     
------------------------------------------------------------------------
 total:
 * wall-time:     0 d,  0 h,  0 min,  0.062 sec
 *  cpu-time:     0 d,  0 h,  0 min,  0.061 sec
 * ratio c/w:     0.986 speedup
 SCF:
 * wall-time:     0 d,  0 h,  0 min,  0.044 sec
 *  cpu-time:     0 d,  0 h,  0 min,  0.044 sec
 * ratio c/w:     0.983 speedup


-------------------------   --------------------
FINAL SINGLE POINT ENERGY       -39.088863980250
-------------------------   --------------------


-------------
DIPOLE MOMENT
-------------
                                X             Y             Z
Total Dipole Moment    :      0.18400       2.06300      -0.00000
                        -----------------------------------------
Magnitude (a.u.)       :      2.07119
Magnitude (Debye)      :      5.26454


------------------
CARTESIAN GRADIENT
------------------

   1   C   :    0.017421046    0.008131003    0.000003036
   2   C   :    0.006099809   -0.094098278   -0.000035478
   3   C   :    0.017142728    0.034252393   -0.000004728
   4   C   :    0.040271056   -0.010075065    0.000002990
   5   C   :    0.051076171   -0.093565818   -0.000016898
   6   C   :   -0.025796892   -0.071202056    0.000037517
   7   C   :    0.021517487    0.006085686   -0.000013557
   8   C   :   -0.024635058   -0.036007027   -0.000000342
   9   C   :   -0.027659071    0.075738908    0.000010447
  10   N   :    0.115246379   -0.231405009    0.000019445
  11   N   :   -0.000284976   -0.226302821   -0.000026794
  12   B   :   -0.132891001    0.139137111    0.000005420
  13   F   :   -0.083901890    0.293620176   -0.000003624
  14   F   :    0.020970158    0.230182044   -0.000001073
  15   H   :   -0.024288722    0.005928358    0.000002627
  16   H   :   -0.000178177    0.010266184    0.000008881
  17   H   :    0.002836850   -0.025275635   -0.000004216
  18   H   :    0.001128433    0.001641732    0.000005866
  19   H   :    0.005722081   -0.000006289    0.000007720
  20   H   :    0.015973577   -0.010209880    0.000002126
  21   H   :    0.004230013   -0.006835718    0.000000634

Difference to translation invariance:
           :    0.0000000000   -0.0000000000    0.0000000000

Difference to rotation invariance:
           :    0.0000000845    0.0000002124    0.0000000194

Norm of the Cartesian gradient     ...    0.5848343915
RMS gradient                       ...    0.0736822075
MAX gradient                       ...    0.2936201762
------------------------------------------------------------------------------
                         ORCA GEOMETRY RELAXATION STEP
[...]
 * wall-time:     0 d,  0 h,  0 min,  0.126 sec
 *  cpu-time:     0 d,  0 h,  0 min,  0.112 sec
 * ratio c/w:     0.891 speedup
 SCF:
 * wall-time:     0 d,  0 h,  0 min,  0.087 sec
 *  cpu-time:     0 d,  0 h,  0 min,  0.085 sec
 * ratio c/w:     0.975 speedup


-------------------------   --------------------
FINAL SINGLE POINT ENERGY       -39.511355428910
-------------------------   --------------------


-------------
DIPOLE MOMENT
-------------
                                X             Y             Z
Total Dipole Moment    :     -0.13400       2.00300       0.55600
                        -----------------------------------------
Magnitude (a.u.)       :      2.08305
Magnitude (Debye)      :      5.29469


------------------
CARTESIAN GRADIENT
------------------

   1   C   :   -0.001660365    0.010661120   -0.001032689
   2   C   :   -0.004669964    0.000889989   -0.001031678
   3   C   :   -0.004323640   -0.000411767    0.000341529
   4   C   :   -0.005321518   -0.004594042   -0.000458601
   5   C   :    0.004540038    0.008421708    0.006038207
   6   C   :    0.005665090    0.012678158   -0.003153645
   7   C   :   -0.012630314    0.005681067   -0.002262298
   8   C   :    0.009315264   -0.013601859   -0.000632846
   9   C   :    0.006447064    0.007632189   -0.006457099
  10   N   :   -0.004608895   -0.006846633    0.004902480
  11   N   :   -0.015211060   -0.039291718    0.016739034
  12   B   :    0.020203750    0.027477412   -0.019210416
  13   F   :   -0.006706206   -0.008527300    0.000616661
  14   F   :    0.006293589   -0.005130495    0.004033323
  15   H   :   -0.000687937    0.002289143   -0.000857844
  16   H   :    0.001111529    0.001685350    0.004704037
  17   H   :    0.001583359   -0.000127873   -0.001092491
  18   H   :    0.000758825   -0.000197526   -0.000495449
  19   H   :    0.000047862    0.002202540   -0.001028093
  20   H   :   -0.000276511   -0.000360096    0.000567785
  21   H   :    0.000130042   -0.000529367   -0.000229907

Difference to translation invariance:
           :    0.0000000000    0.0000000000   -0.0000000000

Difference to rotation invariance:
           :   -0.0000000821    0.0000000318   -0.0000000866

Norm of the Cartesian gradient     ...    0.0712406810
RMS gradient                       ...    0.0089754822
MAX gradient                       ...    0.0392917179
------------------------------------------------------------------------------
                         ORCA GEOMETRY RELAXATION STEP
------------------------------------------------------------------------------

Reading the OPT-File                    .... done
Getting information on internals        .... done
Copying old internal coords+grads       .... done
Making the new internal coordinates     .... (2022 redundants) done
Validating the new internal coordinates .... (2022 redundants) done
Calculating the B-matrix                .... done
Calculating the G,G- and P matrices     .... done
Transforming gradient to internals      .... done
Projecting the internal gradient        .... done
Number of atoms                         ....  21
Number of internal coordinates          .... 116
Current Energy                          ....   -39.511355429 Eh
Current gradient norm                   ....     0.071240681 Eh/bohr
Maximum allowed component of the step   ....  0.300
Current trust radius                    ....  0.700
Updating the Hessian (BFGS)             .... done
Forming the augmented Hessian           .... done
Diagonalizing the augmented Hessian     .... done
Last element of RFO vector              ....  0.818832703
Lowest eigenvalues of augmented Hessian:
 -0.015611024  0.001955014  0.010069550  0.016349220  0.019449373
Length of the computed step             ....  0.701037259
Warning: the length of the step is outside the trust region - taking restricted step instead
The input lambda is                     ....     0.000953
   iter:   5  x=   -0.015431  g=   49.604973 f(x)=     0.082492
The output lambda is                    ....    -0.015648 (9 iterations)
The final length of the internal step   ....  0.668504236
Converting the step to Cartesian space:
 Initial RMS(Int)=    0.0620690601
Transforming coordinates:
 Iter   0:  RMS(Cart)=    0.1406286605 RMS(Int)=    1.2958094724
 Iter   5:  RMS(Cart)=    0.0000020721 RMS(Int)=    0.0000013898
done
Storing new coordinates                 .... done
The predicted energy change is          ....    -0.008377960
Previously predicted energy change      ....     0.000148376
Actually observed energy change         ....    -0.010284105
Ratio of predicted to observed change   ....    69.311289852
New trust radius                        ....     0.466666667

                                .--------------------.
          ----------------------|Geometry convergence|-------------------------
          Item                value                   Tolerance       Converged
          ---------------------------------------------------------------------
          Energy change      -0.0102841054            0.0000050000      NO
          RMS gradient        0.0040041473            0.0001000000      NO
          MAX gradient        0.0170277653            0.0003000000      NO
          RMS step            0.0620690601            0.0020000000      NO
          MAX step            0.3000000000            0.0040000000      NO
          -------------------------------------------------------------------------
          ........................................................
          Max(Bonds)      0.1588      Max(Angles)    6.93
          Max(Dihed)       14.07      Max(Improp)    0.00
          ---------------------------------------------------------------------

The optimization has not yet converged - more geometry cycles are needed


    ---------------------------------------------------------------------------
                         Redundant Internal Coordinates
                            (Angstroem and degrees)

        Definition                    Value    dE/dq     Step     New-Value
    ----------------------------------------------------------------------------
     1. B(C   1,C   0)                1.3892  0.004916 -0.0090    1.3801   
     2. B(C   2,C   1)                1.4199  0.003735  0.0078    1.4277   
     3. B(C   3,C   2)                1.3770 -0.000234 -0.0189    1.3580   
     4. B(C   4,C   3)                1.4062  0.001206  0.0103    1.4165   
     5. B(C   5,C   0)                1.3997  0.007545  0.0058    1.4055   
     6. B(C   6,C   5)                1.3991 -0.003789 -0.0123    1.3868   
     7. B(C   7,C   6)                1.3951  0.011712 -0.0139    1.3812   
     8. B(C   8,C   7)                1.3886 -0.000687  0.0064    1.3950   
     9. B(N   9,C   4)                1.3197  0.000345  0.0082    1.3279   
    10. B(N   9,C   1)                1.3872  0.004707 -0.0025    1.3847   
    11. B(N  10,C   8)                1.3429  0.006702  0.0161    1.3590   
    12. B(N  10,C   5)                1.4367  0.017028 -0.0308    1.4059   
    13. B(B  11,N  10)                1.5156 -0.012558  0.1588    1.6743   
    14. B(B  11,N   9)                1.5781  0.010812  0.0001    1.5782   
    15. B(F  12,B  11)                1.3982  0.008775  0.0142    1.4124   
    16. B(F  13,B  11)                1.3682 -0.001860  0.0216    1.3898   
    17. B(H  14,C   7)                1.0705 -0.000509 -0.0038    1.0667   
    18. B(H  15,C   8)                1.0765  0.000819 -0.0097    1.0668   
    19. B(H  16,C   6)                1.0737  0.000646  0.0051    1.0787   
    20. B(H  17,C   2)                1.0719 -0.000363  0.0027    1.0746   
    21. B(H  18,C   3)                1.0709 -0.000330  0.0009    1.0718   
    22. B(H  19,C   4)                1.0752  0.000528 -0.0077    1.0675   
    23. B(H  20,C   0)                1.0780 -0.000454  0.0023    1.0803   
    24. A(C   1,C   0,H  20)          121.07  0.002029   -3.56    117.51   
    25. A(C   1,C   0,C   5)          120.02 -0.003847    5.84    125.85   
    26. A(C   5,C   0,H  20)          118.90  0.001810   -3.30    115.60   
    27. A(C   0,C   1,C   2)          133.84  0.001447   -0.08    133.77   
    28. A(C   0,C   1,N   9)          117.74 -0.001610    1.42    119.16   
    29. A(C   2,C   1,N   9)          107.84  0.000294   -1.47    106.37   
    30. A(C   1,C   2,C   3)          106.85  0.000964    0.68    107.53   
    31. A(C   1,C   2,H  17)          124.71 -0.001235    0.90    125.61   
    32. A(C   3,C   2,H  17)          128.43  0.000281   -1.58    126.84   
    33. A(C   2,C   3,C   4)          106.49 -0.002161    1.32    107.81   
    34. A(C   4,C   3,H  18)          127.29  0.003474   -2.51    124.78   
    35. A(C   2,C   3,H  18)          126.22 -0.001316    1.21    127.42   
    36. A(C   3,C   4,N   9)          110.84  0.004783   -2.45    108.40   
    37. A(N   9,C   4,H  19)          120.85 -0.002123    0.37    121.22   
    38. A(C   3,C   4,H  19)          128.23 -0.002724    2.09    130.32   
    39. A(C   0,C   5,N  10)          123.47  0.001622   -3.95    119.52   
    40. A(C   6,C   5,N  10)          108.31 -0.001445    0.53    108.84   
    41. A(C   0,C   5,C   6)          128.21 -0.000181    2.72    130.92   
    42. A(C   5,C   6,H  16)          126.26  0.000549   -1.46    124.80   
    43. A(C   5,C   6,C   7)          107.57  0.001909   -0.00    107.57   
    44. A(C   7,C   6,H  16)          126.14 -0.002445    1.23    127.38   
    45. A(C   6,C   7,C   8)          106.37  0.000384    0.24    106.61   
    46. A(C   8,C   7,H  14)          127.78  0.002331   -2.44    125.33   
    47. A(C   6,C   7,H  14)          125.83 -0.002743    2.21    128.04   
    48. A(C   7,C   8,N  10)          112.55  0.000914   -1.69    110.85   
    49. A(N  10,C   8,H  15)          119.78  0.000336    1.92    121.70   
    50. A(C   7,C   8,H  15)          127.39 -0.001138   -0.64    126.75   
    51. A(C   1,N   9,C   4)          107.81 -0.003969    1.99    109.80   
    52. A(C   4,N   9,B  11)          131.81  0.001666    3.31    135.11   
    53. A(C   1,N   9,B  11)          119.98  0.002203   -6.93    113.05   
    54. A(C   5,N  10,C   8)          105.20 -0.001791    0.60    105.80   
    55. A(C   8,N  10,B  11)          129.00  0.001640    4.42    133.42   
    56. A(C   5,N  10,B  11)          109.95 -0.002288   -4.35    105.60   
    57. A(F  12,B  11,F  13)          107.92  0.000311    1.46    109.38   
    58. A(N  10,B  11,F  13)          108.21 -0.007224    6.08    114.29   
    59. A(N   9,B  11,F  12)          105.02 -0.010278    1.22    106.24   
    60. A(N   9,B  11,N  10)          105.50 -0.001086    1.72    107.21   
    61. D(C   2,C   1,C   0,H  20)    -14.00  0.000827    0.43    -13.57   
    62. D(N   9,C   1,C   0,C   5)     -5.33 -0.000679   -2.98     -8.31   
    63. D(C   2,C   1,C   0,C   5)    164.79  0.000409   -3.00    161.79   
    64. D(N   9,C   1,C   0,H  20)    175.87 -0.000260    0.45    176.32   
    65. D(H  17,C   2,C   1,N   9)   -178.61  0.000721   -0.37   -178.97   
    66. D(C   3,C   2,C   1,N   9)      2.79  0.000313   -0.84      1.95   
    67. D(H  17,C   2,C   1,C   0)     10.57 -0.000136   -0.63      9.94   
    68. D(C   3,C   2,C   1,C   0)   -168.04 -0.000544   -1.11   -169.15   
    69. D(H  18,C   3,C   2,H  17)      0.43 -0.000184   -0.17      0.26   
    70. D(H  18,C   3,C   2,C   1)    178.96  0.000216    0.52    179.48   
    71. D(C   4,C   3,C   2,C   1)     -0.52  0.000493   -0.55     -1.07   
    72. D(C   4,C   3,C   2,H  17)   -179.06  0.000092   -1.24   -180.30   
    73. D(H  19,C   4,C   3,C   2)   -178.71 -0.000013    0.27   -178.44   
    74. D(N   9,C   4,C   3,C   2)     -2.07 -0.001311    1.67     -0.41   
    75. D(N   9,C   4,C   3,H  18)    178.45 -0.000998    0.55    179.00   
    76. D(H  19,C   4,C   3,H  18)      1.81  0.000300   -0.85      0.97   
    77. D(N  10,C   5,C   0,H  20)    173.99  0.000731   -0.70    173.30   
    78. D(N  10,C   5,C   0,C   1)     -4.82  0.001136    2.86     -1.96   
    79. D(C   6,C   5,C   0,H  20)     -7.50  0.000455    1.30     -6.20   
    80. D(C   6,C   5,C   0,C   1)    173.68  0.000860    4.86    178.54   
    81. D(H  16,C   6,C   5,N  10)    178.69 -0.001168    1.62    180.31   
    82. D(H  16,C   6,C   5,C   0)      0.00 -0.000962   -0.96     -0.95   
    83. D(C   7,C   6,C   5,N  10)      0.45 -0.001559    0.50      0.95   
    84. D(C   7,C   6,C   5,C   0)   -178.24 -0.001352   -2.07   -180.31   
    85. D(H  14,C   7,C   6,H  16)      2.78  0.000156   -1.62      1.15   
    86. D(H  14,C   7,C   6,C   5)   -178.98  0.000613   -0.22   -179.20   
    87. D(C   8,C   7,C   6,H  16)   -179.12 -0.000648   -0.97   -180.09   
    88. D(C   8,C   7,C   6,C   5)     -0.88 -0.000191    0.44     -0.44   
    89. D(H  15,C   8,C   7,C   6)   -172.78  0.000731   -1.63   -174.41   
    90. D(N  10,C   8,C   7,H  14)    179.10  0.001035   -0.85    178.25   
    91. D(N  10,C   8,C   7,C   6)      1.04  0.001989   -1.49     -0.44   
    92. D(H  15,C   8,C   7,H  14)      5.27 -0.000223   -0.99      4.28   
    93. D(B  11,N   9,C   4,H  19)      8.22  0.001023   -2.24      5.98   
    94. D(C   1,N   9,C   4,H  19)   -179.24  0.000160   -0.66   -179.90   
    95. D(C   1,N   9,C   4,C   3)      3.84  0.001395   -2.11      1.73   
    96. D(B  11,N   9,C   1,C   2)    169.50 -0.001594    3.89    173.40   
    97. D(B  11,N   9,C   1,C   0)    -17.96 -0.000606    3.82    -14.14   
    98. D(B  11,N   9,C   4,C   3)   -168.70  0.002257   -3.69   -172.39   
    99. D(C   4,N   9,C   1,C   2)     -4.08 -0.000878    1.71     -2.37   
   100. D(C   4,N   9,C   1,C   0)    168.45  0.000110    1.64    170.09   
   101. D(B  11,N  10,C   8,H  15)    -53.96 -0.006327   14.07    -39.89   
   102. D(C   5,N  10,C   8,H  15)    173.60 -0.001849    1.83    175.43   
   103. D(C   5,N  10,C   8,C   7)     -0.75 -0.002894    1.52      0.77   
   104. D(B  11,N  10,C   5,C   6)   -142.23  0.004159   -7.33   -149.56   
   105. D(B  11,N  10,C   5,C   0)     36.53  0.003939   -6.37     30.16   
   106. D(B  11,N  10,C   8,C   7)    131.69 -0.007372   13.76    145.46   
   107. D(C   8,N  10,C   5,C   6)      0.17  0.002668   -1.02     -0.85   
   108. D(C   8,N  10,C   5,C   0)    178.93  0.002447   -0.07    178.87   
   109. D(F  13,B  11,N  10,C   8)    -59.07  0.012611   -6.69    -65.77   
   110. D(N   9,B  11,N  10,C   8)    177.37  0.000578   -9.41    167.96   
   111. D(N   9,B  11,N  10,C   5)    -51.89 -0.003776    1.57    -50.31   
   112. D(F  12,B  11,N   9,C   4)    -18.84  0.005903    0.02    -18.83   
   113. D(F  12,B  11,N   9,C   1)    169.36  0.007220   -2.79    166.57   
   114. D(F  13,B  11,N  10,C   5)     71.67  0.008257    4.28     75.96   
   115. D(N  10,B  11,N   9,C   4)   -141.24  0.005501   -4.34   -145.58   
   116. D(N  10,B  11,N   9,C   1)     46.97  0.006818   -7.15     39.81   
    ----------------------------------------------------------------------------

Geometry step timings:
Preparation and reading OPT file:      0.000 s ( 0.545 %)
Internal coordinates            :      0.000 s ( 0.934 %)
B/P matrices and projection     :      0.002 s (23.748 %)
Hessian update/contruction      :      0.001 s ( 8.885 %)
Making the step                 :      0.003 s (41.336 %)
Converting the step to Cartesian:      0.000 s ( 2.802 %)
Storing new data                :      0.000 s ( 0.947 %)
Checking convergence            :      0.000 s ( 1.647 %)
Final printing                  :      0.001 s (19.157 %)
Total time                      :      0.008 s

Time for energy+gradient        :      0.159 s
Time for complete geometry iter :      0.169 s




    ----------------------------------------------------------------------------
                                  WARNING !!!
       The optimization did not converge but reached the maximum number of
       optimization cycles.
       Please check your results very carefully.
    ----------------------------------------------------------------------------



--------------------------------
SUGGESTED CITATIONS FOR THIS RUN
--------------------------------

Below you find a list of papers that are relevant to this ORCA run
We neither can nor want to force you to cite these papers, but we appreciate if you do
You receive ORCA, which is the product of decades of hard work by many enthusiastic individuals, for free
The only thing we kindly ask in return is that you cite our papers,
We deeply appreciate it, if you show your appreciation for ORCA by not just citing the generic ORCA reference.

Please note that relegating all ORCA citations to the supporting information does *not* help us.
SI sections are not indexed - citations you put there will not count into any citation statistics
But we need these citations in order to attract the funding resources that allow us to do what we are doing

Therefore, if you are a happy ORCA user, please consider citing a few of the papers listed below in the main body of your paper

In addition to the list printed below, the program has created the file Bod_xtb_opt.bibtex that contains the list in bibtex format
You can import this file easily into all common literature databanks and citation aid programs


List of essential papers. We consider these as the minimum necessary citations

  1. Bannwarth, C.; Ehlert, S.; Grimme, S.
     GFN2-xTB—An Accurate and Broadly Parametrized Self-Consistent Tight-Binding Quantum Chemical Method with Multipole Electrostatics and Density-Dependent Dispersion Contributions
     J. Chem. Theory Comput. 2019 15(3), 1652-1671
     doi.org/10.1021/acs.jctc.8b01176
  2. Neese, F.
     Software update: the ORCA program system, version 6.0
     WIRES Comput. Molec. Sci. 2025 15(1), e70019
     doi.org/10.1002/wcms.7019

List of papers to cite with high priority. The work reported in these papers was absolutely
necessary for this run to complete.
Our perspective: the developers of density functionals and basis sets usually get cited in chemistry papers
Good! But without the algorithms to do something with them, the functionals or basis sets would not do anything.
Hence, in our opinion, the algorithm design and method developments papers are equally worthy of getting cited

  1. Bannwarth, C.; Caldeweyher, E.; Ehlert, S.; Hansen, A.; Pracht, P.; Seibert, J.; Spicher, S.; Grimme, S.
     Extended tight-binding quantum chemistry methods
     WIRES Comput. Molec. Sci. 2020 11(2), e1493
     doi.org/10.1002/wcms.1493

List of suggested additional citations. These are papers that are important in the 'surrounding' of 
of this run, or papers that preceded the highly important papers. If you like your results we are grateful for a citation.

  1. Neese, F.
     The ORCA program system
     WIRES Comput. Molec. Sci. 2012 2(1), 73-78
     doi.org/10.1002/wcms.81
  2. Neese, F.
     Software update: the ORCA program system, version 4.0
     WIRES Comput. Molec. Sci. 2018 8(1), 1-6
     doi.org/10.1002/wcms.1327
  3. Neese, F.; Wennmohs, F.; Becker, U.; Riplinger, C.
     The ORCA quantum chemistry program package
     J. Chem. Phys. 2020 152(22), 224108
     doi.org/10.1063/5.0004608
  4. Neese, F.
     Software update: The ORCA program system—Version 5.0
     WIRES Comput. Molec. Sci. 2022 12(1), e1606
     doi.org/10.1002/wcms.1606

List of optional additional citations

  1. Neese, F.
     Approximate second-order SCF convergence for spin unrestricted wavefunctions
     Chem. Phys. Lett. 2000 325(1-3), 93-98
     doi.org/10.1016/s0009-2614(00)00662-x

Timings for individual modules:

Sum of individual times          ...        3.278 sec (=   0.055 min)
Geometry relaxation              ...        0.426 sec (=   0.007 min)  13.0 %
XTB module                       ...        2.851 sec (=   0.048 min)  87.0 %
                             ****ORCA TERMINATED NORMALLY****
TOTAL RUN TIME: 0 days 0 hours 0 minutes 3 seconds 923 msec
