
                                 *****************
                                 * O   R   C   A *
                                 *****************

                                            #,                                       
                                            ###                                      
                                            ####                                     
                                            #####                                    
                                            ######                                   
                                           ########,                                 
                                     ,,################,,,,,                         
                               ,,#################################,,                 
                          ,,##########################################,,             
                       ,#########################################, ''#####,          
                    ,#############################################,,   '####,        
                  ,##################################################,,,,####,       
                ,###########''''           ''''###############################       
              ,#####''   ,,,,##########,,,,          '''####'''          '####       
            ,##' ,,,,###########################,,,                        '##       
           ' ,,###''''                  '''############,,,                           
         ,,##''                                '''############,,,,        ,,,,,,###''
      ,#''                                            '''#######################'''  
     '                                                          ''''####''''         
             ,#######,   #######,   ,#######,      ##                                
            ,#'     '#,  ##    ##  ,#'     '#,    #''#        ,####,    ,#,          
            ##       ##  ##   ,#'  ##            #'  '#       #'       ,# #          
            ##       ##  #######   ##           ,######,      #####,      #          
            '#,     ,#'  ##    ##  '#,     ,#' ,#      #,     #,   #      #          
             '#######'   ##     ##  '#######'  #'      '#     '####' #    #          



                #########################################################
                #                        -***-                          #
                #          Department of theory and spectroscopy        #
                #                                                       #
                #                      Frank Neese                      #
                #                                                       #
                #     Directorship, Architecture, Infrastructure        #
                #                    SHARK, DRIVERS                     #
                #        Core code/Algorithms in most modules           #
                #                                                       #
                #        Max Planck Institute fuer Kohlenforschung      #
                #                Kaiser Wilhelm Platz 1                 #
                #                 D-45470 Muelheim/Ruhr                 #
                #                      Germany                          #
                #                                                       #
                #                  All rights reserved                  #
                #                        -***-                          #
                #########################################################


                         Program Version 6.1.0  -  RELEASE   -
                                (GIT: $679e74b$)
                          ($2025-06-10 18:02:51 +0200$)


 With contributions from (in alphabetic order):
[Max-Planck-Institut fuer Kohlenforschung]                               
  Daniel Aravena         : Magnetic Suceptibility                        
  Michael Atanasov       : Ab Initio Ligand Field Theory (pilot matlab implementation)
  Alexander A. Auer      : GIAO ZORA, VPT2 properties, NMR spectrum      
  Ute Becker             : All parallelization in ORCA, NUMFREQ, NUMCALC 
  Giovanni Bistoni       : ED, misc. LED, open-shell LED, HFLD           
  Dmytro Bykov           : pre 5.0 version of the SCF Hessian            
  Marcos Casanova-Páez   : Triplet and SCS-CIS(D). UHF-(DLPNO)-IP/EA/STEOM-CCSD. UHF-CVS-IP/STEOM-CCSD   
  Vijay G. Chilkuri      : MRCI spin determinant printing, contributions to CSF-ICE 
  Pauline Colinet        : FMM embedding                                 
  Dipayan Datta          : RHF DLPNO-CCSD density                        
  Achintya Kumar Dutta   : EOM-CC, STEOM-CC                              
  Nicolas Foglia         : Exact transition moments, OPA infrastructure, MCD improvements    
  Dmitry Ganyushin       : Spin-Orbit,Spin-Spin,Magnetic field MRCI      
  Miquel Garcia-Rates    : C-PCM and meta-GGA Hessian, CCSD/C-PCM, Gaussian charge scheme 
  Tiago L. C. Gouveia    : GS-ROHF, GS-ROCIS                             
  Yang Guo               : DLPNO-NEVPT2, F12-NEVPT2, CIM, IAO-localization        
  Andreas Hansen         : Spin unrestricted coupled pair/coupled cluster methods 
  Ingolf Harden          : AUTO-CI MPn and infrastructure                
  Benjamin Helmich-Paris : MC-RPA, TRAH-(SCF,CASSCF), AVAS, COSX integrals, SCF dyn. polar., MC-PDFT, srDFT 
  Lee Huntington         : MR-EOM, pCC                                   
  Robert Izsak           : Overlap fitted RIJCOSX, COSX-SCS-MP3, EOM     
  Riya Kayal             : Wick's Theorem for AUTO-CI, AUTO-CI UHF-CCSDT 
  Emily Kempfer          : AUTO-CI RHF CISDT and CCSDT, approximate NEVPT4
  Christian Kollmar      : KDIIS, OOCD, Brueckner-CCSD(T), CCSD density, CASPT2, CASPT2-K, improved NEVPT2 
  Axel Koslowski         : Symmetry handling                             
  Simone Kossmann        : meta-GGA functionals, TD-DFT gradient, OOMP2, (MP2 Hessian; deprecated post 5.0) 
  Lucas Lang             : DCDCAS, Hyperfine gauge corrections, ICE-SOC+SSC
  Marvin Lechner         : AUTO-CI (C++ implementation), FIC-MRCC        
  Spencer Leger          : CASSCF response                               
  Dagmar Lenk            : GEPOL surface, SMD, ORCA-2-JSON               
  Dimitrios Liakos       : Extrapolation schemes; Compound Job, Property file
  Dimitrios Manganas     : Further ROCIS development; embedding schemes. LFT, Crystal Embedding 
  Dimitrios Pantazis     : SARC Basis sets                               
  Anastasios Papadopoulos: AUTO-CI, single reference methods and gradients 
  Taras Petrenko         : pre 6.0 DFT Hessian and TD-DFT gradient,  ECA, NRVS 
  Petra Pikulova         : Analytic Raman intensities                    
  Peter Pinski           : DLPNO-MP2, DLPNO-MP2 Gradient                 
  Shashank Vittal Rao    : ES-AILFT, MagRelax                            
  Christoph Reimann      : Effective Core Potentials                     
  Marius Retegan         : Local ZFS, SOC                                
  Christoph Riplinger    : Optimizer, TS searches, QM/MM, DLPNO-CCSD(T), (RO)-DLPNO pert. Triples 
  Michael Roemelt        : Original ROCIS implementation, recursive CI coupling coefficients
  Masaaki Saitow         : Open-shell DLPNO-CCSD energy and density      
  Barbara Sandhoefer     : DKH picture change effects                    
  Yorick L. A. Schmerwitz: GMF and freeze-and-release deltaSCF, NEB S-IDPP initial path                    
  Kantharuban Sivalingam : CASSCF convergence/infrastructure, NEVPT2, NEVPT3, NEVPT4(SD), FIC-MRCI and CEPA variants
  Bernardo de Souza      : ESD, SOC TD-DFT                               
  Georgi L. Stoychev     : AutoAux, RI-MP2 NMR, DLPNO-MP2 response, X2C  
  Van Anh Tran           : RI-MP2 g-tensors                              
  Willem Van den Heuvel  : Paramagnetic NMR                              
  Zikuan Wang            : NOTCH, Electric field optimization            
  Frank Wennmohs         : Technical directorship and infrastructure     
  Hang Xu                : AUTO-CI-Response properties                   
                                                                         
[FACCTs GmbH]                                                            
  Markus Bursch, Nicolas Foglia, Miquel Garcia-Rates, Ingolf Harden, Hagen Neugebauer, Anastasios Papadopoulos, 
  Christoph Riplinger, Bernardo de Souza, Georgi L. Stoychev                                                    
                                                                 
  APM, various basis sets, CI-OPT, improved COSX, DLPNO-Multilevel,           
  DOCKER, DRACO, updates on ESD, Fragmentator, GOAT, IRC, LR-CPCM, L-BFGS, MBIS, meta-GGA TD-DFT gradient, ML-optimized integration grids, 
  MM, NACMEs, nearIR, NEB, NEB-TS, NL-DFT gradient (VV10), 2- and 3-layer-ONIOM, interface openCOSMO-RS, QMMM,   
  Crystal-QMMM, RESP, rigid body optimization, SF, symmetry and pop. for TD-DFT, various functionals, SOLVATOR                                   
                                                                         
[Other institutions]                                                     
  V. Asgeirsson          : NEB                                           
  Christoph Bannwarth    : sTDA-DFT, sTD-DFT, PBEh-3c, B97-3c, D3        
  Giovanni Bistoni       : ETS/NOCV, ADLD/ADEX, COVALED                  
  Martin Brehm           : Molecular dynamics                            
  Ronald Cardenas        : ETS/NOCV                                      
  Martina Colucci        : COVALED                                       
  Sebastian Ehlert       : rSCAN, r2SCAN, r2SCAN-3c, D4, dhf basis sets  
  Marvin Friede          : D4 for Fr, Ra, Ac-Lr                          
  Lars Goerigk           : TD-DFT with DH, B97 family of functionals     
  Stefan Grimme          : VdW corrections, initial TS optimization, DFT functionals, gCP, sTDA/sTD-DF 
  Waldemar Hujo          : DFT-NL                                        
  H. Jonsson             : NEB                                           
  Holger Kruse           : gCP                                           
  Marcel Mueller         : wB97X-3c, vDZP basis set                      
  Hagen Neugebauer       : wr2SCAN, Native XTB                           
  Gianluca Regni         : ADLD/ADEX                                     
  Tobias Risthaus        : pre 6.0 range-separated hybrid DFT and stability analysis
  Lukas Wittmann         : regularized MP2, r2SCAN double-hybrids, wr2SCAN        
                                                                         
We gratefully acknowledge several colleagues who have allowed us to      
interface, adapt or use parts of their codes:                            
  Ed Valeev, F. Pavosevic, A. Kumar             : LibInt (2-el integral package), F12 methods 
  Garnet Chan, S. Sharma, J. Yang, R. Olivares  : DMRG                   
  Ulf Ekstrom                                   : XCFun DFT Library      
  Mihaly Kallay                                 : mrcc  (arbitrary order and MRCC methods)
  Frank Weinhold                                : gennbo (NPA and NBO analysis)           
  Simon Mueller                                 : openCOSMO-RS                            
  Christopher J. Cramer and Donald G. Truhlar   : smd solvation model                     
  S Lehtola, MJT Oliveira, MAL Marques          : LibXC Library                           
  Liviu Ungur et al                             : ANISO software                          


 Your calculation uses the libint2 library for the computation of 2-el integrals
 For citations please refer to: http://libint.valeyev.net

 Your ORCA version has been built with support for libXC version: 7.0.0
 For citations please refer to: https://libxc.gitlab.io

 This ORCA versions uses:
   CBLAS   interface :  Fast vector & matrix operations
   LAPACKE interface :  Fast linear algebra routines
   SCALAPACK package :  Parallel linear algebra routines
   Shared memory     :  Shared parallel matrices
   BLAS/LAPACK       :  OpenBLAS 0.3.29  USE64BITINT DYNAMIC_ARCH NO_AFFINITY Haswell SINGLE_THREADED
        Core in use  :  Haswell
   Copyright (c) 2011-2014, The OpenBLAS Project


  ***********************************
  * Starting time: Tue Dec 30 00:02:49 2025
  * Host name:     corine-kengne-Latitude-5491
  * Process ID:    36478
  * Working dir.:  /home/corine-kengne/stage_BODIPY/OO-DFT /BODIPY/Etats_Triplets
  ***********************************

Your calculation utilizes the atom-pairwise dispersion correction
with the Becke-Johnson damping scheme (D3BJ)


Your calculation utilizes the SMD solvation module
Please cite in your paper:
Marenich, A. V.; Cramer, C. J.; Truhlar, D. G. J. Phys. Chem. B 2009, 113, 6378 

Warning: RI is on but no J-basis has been assigned. Assigning Def2/J (nothing to worry about!)
================================================================================

----- Orbital basis set information -----
Your calculation utilizes the basis: def2-SVP
   F. Weigend and R. Ahlrichs, Phys. Chem. Chem. Phys. 7, 3297 (2005).

----- AuxJ basis set information -----
Your calculation utilizes the auxiliary basis: def2/J
   H-Rn: F. Weigend, Phys. Chem. Chem. Phys. 8, 1057 (2006).
   Fr-Lr: K. Eichkorn, F. Weigend, O. Treutler, R. Ahlrichs; Theor. Chem. Acc. 97, 119 (1997).

================================================================================
                                        WARNINGS
                       Please study these warnings very carefully!
================================================================================


WARNING: Geometry Optimization
  ===> : Switching off AutoStart
         For restart on a previous wavefunction, please use MOREAD

================================================================================
                                       INPUT FILE
================================================================================
NAME = BODIPY_T1.inp
|  1> ! Opt UKS B3LYP D3BJ def2-SVP TRAH TightSCF TIGHTOPT    
|  2> ! CPCM
|  3> ! SMD(Water)
|  4> 
|  5> %pal
|  6>   nprocs 4
|  7> end
|  8> 
|  9> %cpcm
| 10>   SMDSolvent "Water"  # for more complex biological media
| 11> end
| 12> 
| 13> %scf    # Confirme l'utilisation d'un formalisme de spin non restreint
| 14>   HFTyp UKS
| 15>   #SCF_ALGORITHM DIIS_TRAH Utilise une combinaison de DIIS et TRAH (Trust Radius Augmented Hessian) pour garantir la convergence
| 16>   MaxIter 500
| 17>   ConvForce 1e-6   #Définit un seuil de convergence 
| 18> end
| 19> 
| 20> %geom
| 21>   MaxStep 0.2  # Limite la taille maximale de déplacement des atomes  pour éviter que la géométrie ne se déforme de manière irréaliste pendant l'optimisation
| 22>   Trust 0.3    # Définit le rayon de confiance initial de l'algorithme à 0,3, contrôlant la zone dans laquelle ORCA estime que son approximation de la surface d'énergie est fiable
| 23> end
| 24> 
| 25> * xyz 0 3  # Charge 0, Multiplicity 3 (Triplet)
| 26> C          -1.72057699524250      4.92158739619955     -0.18053428871618
| 27>   C          -2.90048189279880      4.18883923706906     -0.06593476514203
| 28>   C          -4.26013066816487      4.59952997051234     -0.06003256803592
| 29>   C          -5.03213339795090      3.45089213763391      0.10833742910554
| 30>   C          -4.13322225818091      2.36485931383112      0.19992778853212
| 31>   C          -0.47425102772549      4.29975446769320     -0.12881994187101
| 32>   C           0.84036545976753      4.83298130782435     -0.19702679170060
| 33>   C           1.72226511836236      3.76022073896731     -0.07378485822461
| 34>   C           0.93283274974646      2.59694015273861      0.06547007630454
| 35>   N          -2.86590147645420      2.80237101608321      0.09588661703373
| 36>   N          -0.37300554892698      2.91645305797994      0.03287535581845
| 37>   B          -1.57560548902974      1.93089860028012      0.10629477389044
| 38>   F          -1.51462171709805      1.17564448665996      1.27710633920356
| 39>   F          -1.56419195450983      1.07929330006695     -1.00130115027935
| 40>   H           2.81020681150625      3.79024796143019     -0.07911284744465
| 41>   H           1.25849760511228      1.56350349282119      0.18373503553358
| 42>   H           1.07949764362280      5.88831077075851     -0.31919094917639
| 43>   H          -4.60151751839876      5.62830409637877     -0.16449598343299
| 44>   H          -6.11688725777485      3.38139278617429      0.16355496675898
| 45>   H          -4.35538573305804      1.30617409253793      0.33363960457223
| 46>   H          -1.77365945280371      6.00482061635949     -0.30453584272944
| 47> *
| 48> # Notes:
| 49> # - Triplet optimization: multiplicity 3 in the geometry read line above
| 50> # - Adjust functional/basis as required
| 51> 
| 52> # Opt : Lance une optimisation de géométrie, cherchant la structure la plus stable (minimum d'énergie) de la molécule
| 53> # UKS : Utilise la méthode Unrestricted Kohn-Sham
| 54> # D3BJ : Applique la correction de dispersion de Grimme avec l'amortissement de Becke-Johnson, 
| 55> # TightSCF : Impose des critères de convergence très stricts pour le cycle SCF (énergie et densité) avant de passer à l'étape suivante
| 56> # TIGHTOPT : Définit des tolérances de convergence plus rigoureuses pour la géométrie (forces et déplacements atomiques) que l'option standard
| 57> 
| 58> 
| 59> 
| 60>                          ****END OF INPUT****
================================================================================

                       *****************************
                       * Geometry Optimization Run *
                       *****************************

Geometry optimization settings:
Update method            Update   .... BFGS
Choice of coordinates    CoordSys .... (2022) Redundant Internals
Initial Hessian          InHess   .... Almloef's Model
Max. no of cycles        MaxIter  .... 63

Convergence Tolerances:
Energy Change            TolE     ....  1.0000e-06 Eh
Max. Gradient            TolMAXG  ....  1.0000e-04 Eh/bohr
RMS Gradient             TolRMSG  ....  3.0000e-05 Eh/bohr
Max. Displacement        TolMAXD  ....  1.0000e-03 bohr
RMS Displacement         TolRMSD  ....  6.0000e-04 bohr
Strict Convergence                .... False

------------------------------------------------------------------------------
                        ORCA OPTIMIZATION COORDINATE SETUP
------------------------------------------------------------------------------

The optimization will be done in redundant internal coordinates (2022)
Making redundant internal coordinates   ...  (2022 redundants) done
Evaluating the initial hessian          ...  (Almloef) done
Evaluating the coordinates              ...  done
Calculating the B-matrix                .... done
Calculating the G-matrix                .... done
The number of degrees of freedom        ....  120

    -----------------------------------------------------------------
                    Redundant Internal Coordinates


    -----------------------------------------------------------------
         Definition                    Initial Value    Approx d2E/dq
    -----------------------------------------------------------------
      1. B(C   1,C   0)                  1.3936         0.616501   
      2. B(C   2,C   1)                  1.4203         0.558912   
      3. B(C   3,C   2)                  1.3942         0.615302   
      4. B(C   4,C   3)                  1.4128         0.574676   
      5. B(C   5,C   0)                  1.3938         0.616135   
      6. B(C   6,C   5)                  1.4203         0.559019   
      7. B(C   7,C   6)                  1.3942         0.615265   
      8. B(C   8,C   7)                  1.4127         0.574736   
      9. B(N   9,C   4)                  1.3447         0.660807   
     10. B(N   9,C   1)                  1.3963         0.546778   
     11. B(N  10,C   8)                  1.3448         0.660788   
     12. B(N  10,C   5)                  1.3964         0.546604   
     13. B(B  11,N  10)                  1.5566         0.351494   
     14. B(B  11,N   9)                  1.5571         0.350880   
     15. B(F  12,B  11)                  1.3946         0.592154   
     16. B(F  13,B  11)                  1.3972         0.586568   
     17. B(H  14,C   7)                  1.0884         0.362264   
     18. B(H  15,C   8)                  1.0900         0.360139   
     19. B(H  16,C   6)                  1.0890         0.361482   
     20. B(H  17,C   2)                  1.0890         0.361478   
     21. B(H  18,C   3)                  1.0884         0.362250   
     22. B(H  19,C   4)                  1.0900         0.360130   
     23. B(H  20,C   0)                  1.0916         0.357991   
     24. A(C   1,C   0,C   5)          121.2942         0.433137   
     25. A(C   1,C   0,H  20)          119.3354         0.352221   
     26. A(C   5,C   0,H  20)          119.3682         0.352185   
     27. A(C   0,C   1,C   2)          131.2065         0.425628   
     28. A(C   0,C   1,N   9)          120.7063         0.421203   
     29. A(C   2,C   1,N   9)          108.0797         0.413911   
     30. A(C   1,C   2,C   3)          106.9988         0.425479   
     31. A(C   1,C   2,H  17)          124.9509         0.347008   
     32. A(C   3,C   2,H  17)          128.0495         0.352683   
     33. A(C   4,C   3,H  18)          125.5760         0.348763   
     34. A(C   2,C   3,C   4)          106.7888         0.427604   
     35. A(C   2,C   3,H  18)          127.6350         0.352810   
     36. A(C   3,C   4,N   9)          110.1527         0.430285   
     37. A(C   3,C   4,H  19)          128.6767         0.348418   
     38. A(N   9,C   4,H  19)          121.1706         0.354546   
     39. A(C   6,C   5,N  10)          108.0814         0.413901   
     40. A(C   0,C   5,N  10)          120.7364         0.421135   
     41. A(C   0,C   5,C   6)          131.1770         0.425597   
     42. A(C   5,C   6,C   7)          106.9998         0.425489   
     43. A(C   5,C   6,H  16)          124.9241         0.347020   
     44. A(C   7,C   6,H  16)          128.0757         0.352680   
     45. A(C   6,C   7,C   8)          106.7879         0.427608   
     46. A(C   8,C   7,H  14)          125.5757         0.348771   
     47. A(C   6,C   7,H  14)          127.6362         0.352809   
     48. A(N  10,C   8,H  15)          121.2010         0.354546   
     49. A(C   7,C   8,H  15)          128.6420         0.348426   
     50. A(C   7,C   8,N  10)          110.1569         0.430291   
     51. A(C   1,N   9,C   4)          107.9799         0.423686   
     52. A(C   4,N   9,B  11)          126.7518         0.395057   
     53. A(C   1,N   9,B  11)          125.2429         0.382213   
     54. A(C   5,N  10,C   8)          107.9740         0.423660   
     55. A(C   8,N  10,B  11)          126.7733         0.395176   
     56. A(C   5,N  10,B  11)          125.2160         0.382308   
     57. A(F  12,B  11,F  13)          109.5774         0.424398   
     58. A(N  10,B  11,F  13)          110.0118         0.388681   
     59. A(N   9,B  11,F  13)          110.0360         0.388563   
     60. A(N  10,B  11,F  12)          110.4078         0.389325   
     61. A(N   9,B  11,F  12)          110.1788         0.389206   
     62. A(N   9,B  11,N  10)          106.5911         0.357237   
     63. D(N   9,C   1,C   0,H  20)   -179.8927         0.026282   
     64. D(N   9,C   1,C   0,C   5)     -0.4302         0.026282   
     65. D(C   2,C   1,C   0,C   5)    178.4470         0.026282   
     66. D(C   2,C   1,C   0,H  20)     -1.0155         0.026282   
     67. D(C   3,C   2,C   1,N   9)      0.1008         0.021395   
     68. D(H  17,C   2,C   1,N   9)    179.8080         0.021395   
     69. D(H  17,C   2,C   1,C   0)      0.8236         0.021395   
     70. D(C   3,C   2,C   1,C   0)   -178.8837         0.021395   
     71. D(H  18,C   3,C   2,C   1)    179.7969         0.026174   
     72. D(H  18,C   3,C   2,H  17)      0.1016         0.026174   
     73. D(C   4,C   3,C   2,C   1)     -0.0747         0.026174   
     74. D(C   4,C   3,C   2,H  17)   -179.7699         0.026174   
     75. D(H  19,C   4,C   3,C   2)   -179.9224         0.022671   
     76. D(N   9,C   4,C   3,H  18)   -179.8531         0.022671   
     77. D(N   9,C   4,C   3,C   2)      0.0218         0.022671   
     78. D(H  19,C   4,C   3,H  18)      0.2027         0.022671   
     79. D(N  10,C   5,C   0,H  20)    179.8160         0.026249   
     80. D(N  10,C   5,C   0,C   1)      0.3537         0.026249   
     81. D(C   6,C   5,C   0,H  20)      0.7614         0.026249   
     82. D(C   6,C   5,C   0,C   1)   -178.7009         0.026249   
     83. D(H  16,C   6,C   5,N  10)   -179.8363         0.021403   
     84. D(H  16,C   6,C   5,C   0)     -0.6911         0.021403   
     85. D(C   7,C   6,C   5,N  10)     -0.0569         0.021403   
     86. D(C   7,C   6,C   5,C   0)    179.0882         0.021403   
     87. D(H  14,C   7,C   6,H  16)     -0.0626         0.026171   
     88. D(H  14,C   7,C   6,C   5)   -179.8329         0.026171   
     89. D(C   8,C   7,C   6,H  16)    179.8251         0.026171   
     90. D(C   8,C   7,C   6,C   5)      0.0549         0.026171   
     91. D(H  15,C   8,C   7,C   6)    179.8567         0.022675   
     92. D(N  10,C   8,C   7,H  14)    179.8566         0.022675   
     93. D(N  10,C   8,C   7,C   6)     -0.0341         0.022675   
     94. D(H  15,C   8,C   7,H  14)     -0.2526         0.022675   
     95. D(B  11,N   9,C   4,H  19)      1.7558         0.035740   
     96. D(C   1,N   9,C   4,H  19)    179.9906         0.035740   
     97. D(C   1,N   9,C   4,C   3)      0.0415         0.035740   
     98. D(B  11,N   9,C   1,C   2)    178.1802         0.023814   
     99. D(B  11,N   9,C   1,C   0)     -2.7084         0.023814   
    100. D(B  11,N   9,C   4,C   3)   -178.1933         0.035740   
    101. D(C   4,N   9,C   1,C   2)     -0.0880         0.023814   
    102. D(C   4,N   9,C   1,C   0)    179.0234         0.023814   
    103. D(B  11,N  10,C   8,H  15)     -2.0250         0.035738   
    104. D(C   5,N  10,C   8,H  15)   -179.9019         0.035738   
    105. D(C   5,N  10,C   8,C   7)     -0.0016         0.035738   
    106. D(B  11,N  10,C   5,C   6)   -177.8822         0.023798   
    107. D(B  11,N  10,C   5,C   0)      2.8664         0.023798   
    108. D(B  11,N  10,C   8,C   7)    177.8753         0.035738   
    109. D(C   8,N  10,C   5,C   6)      0.0363         0.023798   
    110. D(C   8,N  10,C   5,C   0)   -179.2152         0.023798   
    111. D(F  13,B  11,N  10,C   5)    114.2472         0.010000   
    112. D(F  12,B  11,N  10,C   8)     57.7833         0.010000   
    113. D(F  12,B  11,N  10,C   5)   -124.6888         0.010000   
    114. D(N   9,B  11,N  10,C   8)    177.4459         0.010000   
    115. D(N   9,B  11,N  10,C   5)     -5.0262         0.010000   
    116. D(F  13,B  11,N   9,C   1)   -114.3082         0.010000   
    117. D(F  12,B  11,N   9,C   4)    -57.2957         0.010000   
    118. D(F  12,B  11,N   9,C   1)    124.7603         0.010000   
    119. D(N  10,B  11,N   9,C   4)   -177.1066         0.010000   
    120. D(N  10,B  11,N   9,C   1)      4.9494         0.010000   
    -----------------------------------------------------------------

Number of atoms                         .... 21
Number of degrees of freedom            .... 120


         *************************************************************
         *                GEOMETRY OPTIMIZATION CYCLE   1            *
         *************************************************************
---------------------------------
CARTESIAN COORDINATES (ANGSTROEM)
---------------------------------
  C     -1.720577    4.921587   -0.180534
  C     -2.900482    4.188839   -0.065935
  C     -4.260131    4.599530   -0.060033
  C     -5.032133    3.450892    0.108337
  C     -4.133222    2.364859    0.199928
  C     -0.474251    4.299754   -0.128820
  C      0.840365    4.832981   -0.197027
  C      1.722265    3.760221   -0.073785
  C      0.932833    2.596940    0.065470
  N     -2.865901    2.802371    0.095887
  N     -0.373006    2.916453    0.032875
  B     -1.575605    1.930899    0.106295
  F     -1.514622    1.175644    1.277106
  F     -1.564192    1.079293   -1.001301
  H      2.810207    3.790248   -0.079113
  H      1.258498    1.563503    0.183735
  H      1.079498    5.888311   -0.319191
  H     -4.601518    5.628304   -0.164496
  H     -6.116887    3.381393    0.163555
  H     -4.355386    1.306174    0.333640
  H     -1.773659    6.004821   -0.304536

----------------------------
CARTESIAN COORDINATES (A.U.)
----------------------------
  NO LB      ZA    FRAG     MASS         X           Y           Z
   0 C     6.0000    0    12.011   -3.251419    9.300452   -0.341160
   1 C     6.0000    0    12.011   -5.481116    7.915759   -0.124599
   2 C     6.0000    0    12.011   -8.050480    8.691852   -0.113445
   3 C     6.0000    0    12.011   -9.509354    6.521241    0.204728
   4 C     6.0000    0    12.011   -7.810658    4.468936    0.377809
   5 C     6.0000    0    12.011   -0.896205    8.125358   -0.243434
   6 C     6.0000    0    12.011    1.588061    9.133011   -0.372327
   7 C     6.0000    0    12.011    3.254609    7.105787   -0.139433
   8 C     6.0000    0    12.011    1.762798    4.907506    0.123721
   9 N     7.0000    0    14.007   -5.415769    5.295714    0.181199
  10 N     7.0000    0    14.007   -0.704878    5.511298    0.062125
  11 B     5.0000    0    10.810   -2.977463    3.648870    0.200868
  12 F     9.0000    0    18.998   -2.862220    2.221646    2.413381
  13 F     9.0000    0    18.998   -2.955894    2.039569   -1.892185
  14 H     1.0000    0     1.008    5.310521    7.162531   -0.149502
  15 H     1.0000    0     1.008    2.378216    2.954593    0.347209
  16 H     1.0000    0     1.008    2.039955   11.127295   -0.603183
  17 H     1.0000    0     1.008   -8.695608   10.635953   -0.310852
  18 H     1.0000    0     1.008  -11.559242    6.389906    0.309074
  19 H     1.0000    0     1.008   -8.230486    2.468311    0.630487
  20 H     1.0000    0     1.008   -3.351731   11.347466   -0.575489

--------------------------------
INTERNAL COORDINATES (ANGSTROEM)
--------------------------------
 C      0   0   0     0.000000000000     0.00000000     0.00000000
 C      1   0   0     1.393638576816     0.00000000     0.00000000
 C      2   1   0     1.420333237949   131.20651317     0.00000000
 C      3   2   1     1.394168405127   106.99884159   181.11634461
 C      4   3   2     1.412762303262   106.78882780   359.92531449
 C      1   2   3     1.393800194415   121.29416302   178.44699911
 C      6   1   2     1.420281502586   131.17697054   181.29913043
 C      7   6   1     1.394184643471   106.99981279   179.08823675
 C      8   7   6     1.412733918226   106.78793615     0.05493082
 N      5   4   3     1.344746451481   110.15268999     0.00000000
 N      9   8   7     1.344754466325   110.15688586   359.96586143
 B     11   9   8     1.556584278469   126.77334937   177.87532394
 F     12  11   9     1.394606581818   110.40780538    57.78326342
 F     12  11   9     1.397186668759   110.01176857   296.71925644
 H      8   7   6     1.088369031735   127.63623791   180.16713618
 H      9   8   7     1.089970425591   128.64199449   179.85668993
 H      7   6   1     1.088957555676   124.92411031   359.30885216
 H      3   2   1     1.088959957354   124.95094780     0.82355490
 H      4   3   2     1.088379562800   127.63502550   179.79686630
 H      5   4   3     1.089976998428   128.67667681   180.07759883
 H      1   2   3     1.091598984040   119.33544607   358.98450704

---------------------------
INTERNAL COORDINATES (A.U.)
---------------------------
 C      0   0   0     0.000000000000     0.00000000     0.00000000
 C      1   0   0     2.633595239850     0.00000000     0.00000000
 C      2   1   0     2.684040838628   131.20651317     0.00000000
 C      3   2   1     2.634596470256   106.99884159   181.11634461
 C      4   3   2     2.669733845494   106.78882780   359.92531449
 C      1   2   3     2.633900652851   121.29416302   178.44699911
 C      6   1   2     2.683943072962   131.17697054   181.29913043
 C      7   6   1     2.634627156279   106.99981279   179.08823675
 C      8   7   6     2.669680205548   106.78793615     0.05493082
 N      5   4   3     2.541202512861   110.15268999     0.00000000
 N      9   8   7     2.541217658722   110.15688586   359.96586143
 B     11   9   8     2.941517990674   126.77334937   177.87532394
 F     12  11   9     2.635424504200   110.40780538    57.78326342
 F     12  11   9     2.640300161921   110.01176857   296.71925644
 H      8   7   6     2.056719402619   127.63623791   180.16713618
 H      9   8   7     2.059745598441   128.64199449   179.85668993
 H      7   6   1     2.057831551692   124.92411031   359.30885216
 H      3   2   1     2.057836090206   124.95094780     0.82355490
 H      4   3   2     2.056739303449   127.63502550   179.79686630
 H      5   4   3     2.059758019303   128.67667681   180.07759883
 H      1   2   3     2.062823127902   119.33544607   358.98450704

---------------------
BASIS SET INFORMATION
---------------------
There are 5 groups of distinct atoms

 Group   1 Type C   : 7s4p1d contracted to 3s2p1d pattern {511/31/1}
 Group   2 Type N   : 7s4p1d contracted to 3s2p1d pattern {511/31/1}
 Group   3 Type B   : 7s4p1d contracted to 3s2p1d pattern {511/31/1}
 Group   4 Type F   : 7s4p1d contracted to 3s2p1d pattern {511/31/1}
 Group   5 Type H   : 4s1p contracted to 2s1p pattern {31/1}

Atom   0C    basis set group =>   1
Atom   1C    basis set group =>   1
Atom   2C    basis set group =>   1
Atom   3C    basis set group =>   1
Atom   4C    basis set group =>   1
Atom   5C    basis set group =>   1
Atom   6C    basis set group =>   1
Atom   7C    basis set group =>   1
Atom   8C    basis set group =>   1
Atom   9N    basis set group =>   2
Atom  10N    basis set group =>   2
Atom  11B    basis set group =>   3
Atom  12F    basis set group =>   4
Atom  13F    basis set group =>   4
Atom  14H    basis set group =>   5
Atom  15H    basis set group =>   5
Atom  16H    basis set group =>   5
Atom  17H    basis set group =>   5
Atom  18H    basis set group =>   5
Atom  19H    basis set group =>   5
Atom  20H    basis set group =>   5
---------------------------------
AUXILIARY/J BASIS SET INFORMATION
---------------------------------
There are 5 groups of distinct atoms

 Group   1 Type C   : 12s5p4d2f1g contracted to 6s4p3d1f1g pattern {711111/2111/211/2/1}
 Group   2 Type N   : 12s5p4d2f1g contracted to 6s4p3d1f1g pattern {711111/2111/211/2/1}
 Group   3 Type B   : 12s5p4d2f1g contracted to 6s4p3d1f1g pattern {711111/2111/211/2/1}
 Group   4 Type F   : 12s5p4d2f1g contracted to 6s4p3d1f1g pattern {711111/2111/211/2/1}
 Group   5 Type H   : 5s2p1d contracted to 3s1p1d pattern {311/2/1}

Atom   0C    basis set group =>   1
Atom   1C    basis set group =>   1
Atom   2C    basis set group =>   1
Atom   3C    basis set group =>   1
Atom   4C    basis set group =>   1
Atom   5C    basis set group =>   1
Atom   6C    basis set group =>   1
Atom   7C    basis set group =>   1
Atom   8C    basis set group =>   1
Atom   9N    basis set group =>   2
Atom  10N    basis set group =>   2
Atom  11B    basis set group =>   3
Atom  12F    basis set group =>   4
Atom  13F    basis set group =>   4
Atom  14H    basis set group =>   5
Atom  15H    basis set group =>   5
Atom  16H    basis set group =>   5
Atom  17H    basis set group =>   5
Atom  18H    basis set group =>   5
Atom  19H    basis set group =>   5
Atom  20H    basis set group =>   5


           ************************************************************
           *        Program running with 4 parallel MPI-processes     *
           *              working on a common directory               *
           ************************************************************
------------------------------------------------------------------------------
                             ORCA STARTUP CALCULATIONS
                           -- RI-GTO INTEGRALS CHOSEN --
------------------------------------------------------------------------------
------------------------------------------------------------------------------
                   ___                                                        
                  /   \      - P O W E R E D   B Y -                         
                 /     \                                                     
                 |  |  |   _    _      __       _____    __    __             
                 |  |  |  | |  | |    /  \     |  _  \  |  |  /  |          
                  \  \/   | |  | |   /    \    | | | |  |  | /  /          
                 / \  \   | |__| |  /  /\  \   | |_| |  |  |/  /          
                |  |  |   |  __  | /  /__\  \  |    /   |      \           
                |  |  |   | |  | | |   __   |  |    \   |  |\   \          
                \     /   | |  | | |  |  |  |  | |\  \  |  | \   \       
                 \___/    |_|  |_| |__|  |__|  |_| \__\ |__|  \__/        
                                                                              
                      - O R C A' S   B I G   F R I E N D -                    
                                      &                                       
                       - I N T E G R A L  F E E D E R -                       
                                                                              
 v1 FN, 2020, v2 2021, v3 2022-2024                                           
------------------------------------------------------------------------------


----------------------
SHARK INTEGRAL PACKAGE
----------------------

Number of atoms                             ...     21
Number of basis functions                   ...    231
Number of shells                            ...    105
Maximum angular momentum                    ...      2
Integral batch strategy                     ... SHARK/LIBINT Hybrid
RI-J (if used) integral strategy            ... SPLIT-RIJ (Revised 2003 algorithm where possible)
Printlevel                                  ...      1
Contraction scheme used                     ... SEGMENTED contraction
Prescreening option                         ... SCHWARTZ
   Thresh                                   ... 2.500e-11
   Tcut                                     ... 2.500e-12
   Tpresel                                  ... 2.500e-12 
Coulomb Range Separation                    ... NOT USED
Exchange Range Separation                   ... NOT USED
Multipole approximations                    ... NOT USED
Finite Nucleus Model                        ... NOT USED
CABS basis                                  ... NOT available
Auxiliary Coulomb fitting basis             ... AVAILABLE
   # of basis functions in Aux-J            ...    763
   # of shells in Aux-J                     ...    245
   Maximum angular momentum in Aux-J        ...      4
Auxiliary J/K fitting basis                 ... NOT available
Auxiliary Correlation fitting basis         ... NOT available
Auxiliary 'external' fitting basis          ... NOT available

Checking pre-screening integrals            ... done (  0.0 sec) Dimension = 105
   => SHARK Basis and OBASIS are compatible. Storing Pre-screening
Shell pair information
Shell pair cut-off parameter TPreSel        ...   2.5e-12
Total number of shell pairs                 ...      5565
Shell pairs after pre-screening             ...      4864
Total number of primitive shell pairs       ...     20909
Primitive shell pairs kept                  ...     12574
          la=0 lb=0:   1377 shell pairs
          la=1 lb=0:   1745 shell pairs
          la=1 lb=1:    576 shell pairs
          la=2 lb=0:    648 shell pairs
          la=2 lb=1:    432 shell pairs
          la=2 lb=2:     86 shell pairs

Checking whether 4 symmetric matrices of dimension 231 fit in memory
:Max Core in MB      =   4096.00
 MB in use           =      9.65
 MB left             =   4086.35
 MB needed           =      0.82
 Data fit in memory  = YES
Calculating RI/J V-Matrix + Cholesky decomp.... done (  0.0 sec)
Calculating Nuclear repulsion               ... done (  0.0 sec) ENN=    858.773816736444 Eh

Diagonalization of the overlap matrix:
Smallest eigenvalue                        ... 6.067e-04
Time for diagonalization                   ...    0.010 sec
Threshold for overlap eigenvalues          ... 1.000e-07
Number of eigenvalues below threshold      ... 0
Time for construction of square roots      ...    0.003 sec
Total time needed                          ...    0.015 sec

-------------------
DFT GRID GENERATION
-------------------

General Integration Accuracy     IntAcc      ... 4.388
Radial Grid Type                 RadialGrid  ... OptM3 with GC (2021)
Angular Grid (max. ang.)         AngularGrid ... 4 (Lebedev-302)
Angular grid pruning method      GridPruning ... 4 (adaptive)
Weight generation scheme         WeightScheme... mBecke (2022)
Basis function cutoff            BFCut       ... 1.0000e-11
Integration weight cutoff        WCut        ... 1.0000e-14
Partially contracted basis set               ... off
Rotationally invariant grid construction     ... off
Angular grids for H and He will be reduced by one unit

Total number of grid points                  ...   106428
Total number of batches                      ...     1675
Average number of points per batch           ...       63
Average number of grid points per atom       ...     5068

--------------------
COSX GRID GENERATION
--------------------

GRIDX 1
-------
General Integration Accuracy     IntAcc      ... 3.816
Radial Grid Type                 RadialGrid  ... OptM3 with GC (2021)
Angular Grid (max. ang.)         AngularGrid ... 1 (Lebedev-50)
Angular grid pruning method      GridPruning ... 4 (adaptive)
Weight generation scheme         WeightScheme... mBecke (2022)
Basis function cutoff            BFCut       ... 1.0000e-11
Integration weight cutoff        WCut        ... 1.0000e-14
Partially contracted basis set               ... on
Rotationally invariant grid construction     ... off
Angular grids for H and He will be reduced by one unit

Total number of grid points                  ...    13542
Total number of batches                      ...      117
Average number of points per batch           ...      115
Average number of grid points per atom       ...      645
UseSFitting                                  ... on

GRIDX 2
-------
General Integration Accuracy     IntAcc      ... 4.020
Radial Grid Type                 RadialGrid  ... OptM3 with GC (2021)
Angular Grid (max. ang.)         AngularGrid ... 2 (Lebedev-110)
Angular grid pruning method      GridPruning ... 4 (adaptive)
Weight generation scheme         WeightScheme... mBecke (2022)
Basis function cutoff            BFCut       ... 1.0000e-11
Integration weight cutoff        WCut        ... 1.0000e-14
Partially contracted basis set               ... on
Rotationally invariant grid construction     ... off
Angular grids for H and He will be reduced by one unit

Total number of grid points                  ...    30209
Total number of batches                      ...      247
Average number of points per batch           ...      122
Average number of grid points per atom       ...     1439
UseSFitting                                  ... on

GRIDX 3
-------
General Integration Accuracy     IntAcc      ... 4.338
Radial Grid Type                 RadialGrid  ... OptM3 with GC (2021)
Angular Grid (max. ang.)         AngularGrid ... 3 (Lebedev-194)
Angular grid pruning method      GridPruning ... 4 (adaptive)
Weight generation scheme         WeightScheme... mBecke (2022)
Basis function cutoff            BFCut       ... 1.0000e-11
Integration weight cutoff        WCut        ... 1.0000e-14
Partially contracted basis set               ... on
Rotationally invariant grid construction     ... off
Angular grids for H and He will be reduced by one unit

Total number of grid points                  ...    66537
Total number of batches                      ...      530
Average number of points per batch           ...      125
Average number of grid points per atom       ...     3168
UseSFitting                                  ... on
Grids setup in   1.8 sec
Initializing property integral containers    ... done (  0.0 sec)

SHARK setup successfully completed in   2.0 seconds

Maximum memory used throughout the entire STARTUP-calculation: 31.3 MB


           ************************************************************
           *        Program running with 4 parallel MPI-processes     *
           *              working on a common directory               *
           ************************************************************
-------------------------------------------------------------------------------
                                 ORCA GUESS
                   Start orbitals & Density for SCF / CASSCF
-------------------------------------------------------------------------------

------------
SCF SETTINGS
------------
Hamiltonian:
 Density Functional     Method          .... DFT(GTOs)
 Exchange Functional    Exchange        .... B88
   X-Alpha parameter    XAlpha          ....  0.666667
   Becke's b parameter  XBeta           ....  0.004200
 Correlation Functional Correlation     .... LYP
 LDA part of GGA corr.  LDAOpt          .... VWN-5
 Gradients option       PostSCFGGA      .... off
 Hybrid DFT is turned on
   Fraction HF Exchange ScalHFX         ....  0.200000
   Scaling of DF-GGA-X  ScalDFX         ....  0.720000
   Scaling of DF-GGA-C  ScalDFC         ....  0.810000
   Scaling of DF-LDA-C  ScalLDAC        ....  1.000000
   Perturbative correction              ....  0.000000
   NL short-range parameter             ....  4.800000
 RI-approximation to the Coulomb term is turned on
   Number of AuxJ basis functions       .... 763
   RIJ-COSX (HFX calculated with COS-X)).... on


General Settings:
 Integral files         IntName         .... BODIPY_T1
 Hartree-Fock type      HFTyp           .... UHF
 Total Charge           Charge          ....    0
 Multiplicity           Mult            ....    3
 Number of Electrons    NEL             ....   98
 Basis Dimension        Dim             ....  231
 Nuclear Repulsion      ENuc            ....    858.7738167364 Eh

Convergence Acceleration:
 AO-DIIS                CNVDIIS         .... off
 MO-DIIS                CNVKDIIS        .... off
 Trust-Rad. Augm. Hess. CNVTRAH         .... on
   Max. Number of Micro iterations      ....    24
   Max. Number of Macro iterations      ....   500
   Number of Davidson start vectors     ....     2
   Converg. threshold    (grad. norm)   ....   1.000e-05
   Grad. Scal. Fac. for Micro threshold ....   0.100
   Minimum threshold for Micro iter.    ....   1.000e-02
   NR start threshold (gradient norm)   ....   1.000e-04
   Initial trust radius                 ....   0.400
   Minimum AH scaling param. (alpha)    ....   1.000
   Maximum AH scaling param. (alpha)    .... 1000.000
   Quad. conv. algorithm                .... NR
   White noise on init. David. guess    .... on
   Maximum white noise                  ....   0.010
   Pseudo random numbers                .... off
   Inactive MOs                         .... canonical
   Orbital update algorithm             .... Taylor
   Preconditioner                       .... Diag
   Full preconditioner red. dimension   ....   250
 SOSCF                 CNVSOSCF           .... off
 Level Shifting         CNVShift        .... off
 Zerner damping         CNVZerner       .... off
 Static damping         CNVDamp         .... off

SCF Procedure:
 Maximum # iterations   MaxIter         ....   500
 SCF integral mode      SCFMode         .... Direct
   Integral package                     .... SHARK and LIBINT hybrid scheme
 Reset frequency        DirectResetFreq ....    20
 Integral Threshold     Thresh          ....  2.500e-11 Eh
 Primitive CutOff       TCut            ....  2.500e-12 Eh

Convergence Tolerance:
 Convergence Check Mode ConvCheckMode   .... Total+1el-Energy
 Convergence forced     ConvForced      .... 0
 Energy Change          TolE            ....  1.000e-08 Eh
 1-El. energy change                    ....  1.000e-05 Eh

------------------------------
INITIAL GUESS: MODEL POTENTIAL
------------------------------
Loading Hartree-Fock densities                     ... done
Calculating cut-offs                               ... done
Initializing the effective Hamiltonian             ... done
Setting up the integral package (SHARK)            ... done
Starting the Coulomb interaction                   ... done (   0.1 sec)
Making the grid                                    ... done (   0.2 sec)
Mapping shells                                     ... done
Starting the XC term evaluation                    ... done (   0.1 sec)
  promolecular density results
     # of electrons  =     97.992606772
     EX              =    -85.495013542
     EC              =     -3.406737550
     EX+EC           =    -88.901751092
Transforming the Hamiltonian                       ... done (   0.0 sec)
Diagonalizing the Hamiltonian                      ... done (   0.0 sec)
Back transforming the eigenvectors                 ... done (   0.0 sec)
Now organizing SCF variables                       ... done
                      ------------------
                      INITIAL GUESS DONE (   0.5 sec)
                      ------------------
             **** ENERGY FILE WAS UPDATED (BODIPY_T1.en.tmp) ****
Finished Guess after   1.0 sec
Maximum memory used throughout the entire GUESS-calculation: 13.4 MB


           ************************************************************
           *        Program running with 4 parallel MPI-processes     *
           *              working on a common directory               *
           ************************************************************

-------------------------------------------------------------------------------------------
                                      ORCA LEAN-SCF
                              memory conserving SCF solver
-------------------------------------------------------------------------------------------

--------------------
CPCM SOLVATION MODEL
--------------------
CPCM parameters:
  Epsilon                                         ...      78.3550
  Refrac                                          ...       1.3328
  Rsolv                                           ...       1.3000
  Surface type                                    ... GAUSSIAN VDW
  Discretization scheme                           ... Constant charge density
    Threshold for H atoms                         ...       5.0000 (charges/Ang^2)
    Threshold for non-H atoms                     ...       5.0000 (charges/Ang^2)
  Epsilon function type                           ...         CPCM
Solvent:                                          ... WATER
SMD-CDS solvent descriptors:
  Soln                                            ...       1.3328
  Soln25                                          ...       1.3323
  Sola                                            ...       0.0000
  Solb                                            ...       0.0000
  Solg                                            ...       0.0000
  Solc                                            ...       0.0000
  Solh                                            ...       0.0000
Radii:
  Scheme                                          ... Element-dependent radii
  Radius for C  used is    3.4960 Bohr (=   1.8500 Ang.)
  Radius for N  used is    3.5716 Bohr (=   1.8900 Ang.)
  Radius for B  used is    3.6283 Bohr (=   1.9200 Ang.)
  Radius for F  used is    3.2692 Bohr (=   1.7300 Ang.)
  Radius for H  used is    2.2677 Bohr (=   1.2000 Ang.)
Calculating surface                               ...        done! (  0.0s)
Cavity surface points                             ...         1709
Cavity Volume                                     ...    1245.5495
Cavity Surface-area                               ...     718.8063
Calculating surface distance matrix               ...        done! (  0.0s)
Performing Cholesky decomposition & store         ...        done! (  0.2s)
Overall time for CPCM initialization              ...                 0.2s

 --------------------------------------------------------------------------------------------
   Iter.        energy            ||Error||_2        Shift      TRadius  Mac/Mic        Rej.
 --------------------------------------------------------------------------------------------
    0       -680.251642901605     7.058927e-01                     0.400 (TRAH MAcro)   No
    0     dE    -2.141094e-01     1.418872e-01    -1.9716e-01      0.293 (TRAH MIcro)
    0     dE    -2.258205e-01     3.605806e-02    -2.0491e-01      0.319 (TRAH MIcro)
    0     dE    -2.270320e-01     8.776991e-03    -2.0552e-01      0.324 (TRAH MIcro)
    1       -680.476555218440     5.966245e-02                     0.480 (TRAH MAcro)   No
    1     dE    -2.535266e-03     2.117708e-02    -2.5292e-03      0.049 (TRAH MIcro)
    1     dE    -2.949010e-03     9.427381e-03    -2.9352e-03      0.069 (TRAH MIcro)
    1     dE    -3.038816e-03     4.836779e-03    -3.0199e-03      0.079 (TRAH MIcro)
    2       -680.479588955609     4.883940e-03                     0.576 (TRAH MAcro)   No
    2     dE    -1.848859e-05     3.038066e-03    -1.8488e-05      0.006 (TRAH MIcro)
    2     dE    -2.893365e-05     1.989676e-03    -2.8930e-05      0.012 (TRAH MIcro)
    2     dE    -3.252387e-05     1.128204e-03    -3.2515e-05      0.016 (TRAH MIcro)
    2     dE    -3.358938e-05     4.039961e-04    -3.3578e-05      0.018 (TRAH MIcro)
    3       -680.479622505948     4.067744e-04                     0.691 (TRAH MAcro)   No
    3     dE    -9.665879e-08     1.810197e-04    -9.6659e-08      0.000 (TRAH MIcro)
    3     dE    -1.304058e-07     1.032038e-04    -1.3041e-07      0.001 (TRAH MIcro)
    3     dE    -1.389195e-07     5.297877e-05    -1.3892e-07      0.001 (TRAH MIcro)
    3     dE    -1.406255e-07     2.092391e-05    -1.4063e-07      0.001 (TRAH MIcro)
    4       -680.479622643401     2.094976e-05                           (NR   MAcro)
    4     dE    -4.080264e-10     1.441969e-05                           (NR   MIcro)
    4     dE    -6.333588e-10     9.363440e-06                           (NR   MIcro)
    4     dE    -7.146765e-10     4.716102e-06                           (NR   MIcro)
    4     dE    -7.301356e-10     2.396336e-06                           (NR   MIcro)
    4     dE    -7.343583e-10     7.107626e-07                           (NR   MIcro)
    5       -680.479622644061     7.136482e-07                           (NR   MAcro)

               *****************************************************
               *                     SUCCESS                       *
               *           SCF CONVERGED AFTER  25 CYCLES          *
               *****************************************************

Recomputing exchange energy using gridx3       ... done (    5.912 sec)
Old exchange energy                            :    -17.284050693 Eh
New exchange energy                            :    -17.284061791 Eh
Exchange energy change after final integration :     -0.000011098 Eh
Total energy after final integration           :   -680.479633742 Eh

SMD CDS free energy correction energy :                 6.09565     Kcal/mol
Total Energy after SMD CDS correction =              -680.469919713 Eh
Warning: op=1 Small HOMO/LUMO gap (   0.088) - skipping pre-diagonalization
         Will do a full diagonalization
             **** ENERGY FILE WAS UPDATED (BODIPY_T1.en.tmp) ****

----------------
TOTAL SCF ENERGY
----------------

Total Energy       :       -680.46991971296347 Eh          -18516.52788 eV

Components:
Nuclear Repulsion  :        858.77381673644391 Eh           23368.42358 eV
Electronic Energy  :      -1539.67309563620415 Eh          -41896.63492 eV
One Electron Energy:      -2635.20665561363649 Eh          -71707.61864 eV
Two Electron Energy:       1095.53355997743233 Eh           29810.98373 eV
CPCM Dielectric    :         -0.02091894753225 Eh              -0.56923 eV
SMD CDS (Gcds)     :          0.00971402936998 Eh               0.26433 eV

Virial components:
Potential Energy   :      -1355.11790344166820 Eh          -36874.63282 eV
Kinetic Energy     :        674.64798372870473 Eh           18358.10495 eV
Virial Ratio       :          2.00862959072683

DFT components:
N(Alpha)           :       50.000007733724 electrons
N(Beta)            :       48.000009781282 electrons
N(Total)           :       98.000017515006 electrons
E(X)               :      -68.705205817040 Eh       
E(C)               :       -4.007491195495 Eh       
E(XC)              :      -72.712697012535 Eh       

CPCM Solvation Model Properties:
Surface-charge          :         -0.03394559624540
Corrected charge        :         -0.00000000000000
Outlying charge corr.   :          0.00007847046782 Eh               0.00214 eV
Free-energy (cav+disp)  :          0.00971402936998 Eh               0.26433 eV

---------------
SCF CONVERGENCE
---------------

  Last Energy change         ...   -6.5995e-10  Tolerance :   1.0000e-08
  Last Orbital Gradient      ...    7.1365e-07  Tolerance :   1.0000e-05
  Last Orbital Rotation      ...    8.8500e-05


----------------------
UHF SPIN CONTAMINATION
----------------------

Warning: in a DFT calculation there is little theoretical justification to 
         calculate <S**2> as in Hartree-Fock theory. We will do it anyways
         but you should keep in mind that the values have only limited relevance

Expectation value of <S**2>     :     2.012131
Ideal value S*(S+1) for S=1.0   :     2.000000
Deviation                       :     0.012131

----------------
ORBITAL ENERGIES
----------------
                 SPIN UP ORBITALS
  NO   OCC          E(Eh)            E(eV) 
   0   1.0000     -24.638652      -670.4518 
   1   1.0000     -24.637274      -670.4143 
   2   1.0000     -14.352660      -390.5557 
   3   1.0000     -14.352507      -390.5516 
   4   1.0000     -10.250959      -278.9428 
   5   1.0000     -10.250845      -278.9397 
   6   1.0000     -10.239162      -278.6218 
   7   1.0000     -10.239105      -278.6202 
   8   1.0000     -10.196702      -277.4664 
   9   1.0000     -10.196673      -277.4656 
  10   1.0000     -10.194221      -277.3988 
  11   1.0000     -10.194185      -277.3979 
  12   1.0000     -10.190310      -277.2924 
  13   1.0000      -6.833917      -185.9603 
  14   1.0000      -1.149006       -31.2660 
  15   1.0000      -1.115791       -30.3622 
  16   1.0000      -0.991022       -26.9671 
  17   1.0000      -0.974794       -26.5255 
  18   1.0000      -0.808478       -21.9998 
  19   1.0000      -0.788041       -21.4437 
  20   1.0000      -0.775254       -21.0957 
  21   1.0000      -0.731586       -19.9075 
  22   1.0000      -0.665202       -18.1011 
  23   1.0000      -0.606487       -16.5034 
  24   1.0000      -0.589214       -16.0333 
  25   1.0000      -0.578621       -15.7451 
  26   1.0000      -0.574537       -15.6339 
  27   1.0000      -0.541057       -14.7229 
  28   1.0000      -0.505225       -13.7479 
  29   1.0000      -0.499097       -13.5811 
  30   1.0000      -0.485944       -13.2232 
  31   1.0000      -0.457852       -12.4588 
  32   1.0000      -0.449183       -12.2229 
  33   1.0000      -0.439828       -11.9683 
  34   1.0000      -0.438137       -11.9223 
  35   1.0000      -0.433771       -11.8035 
  36   1.0000      -0.428092       -11.6490 
  37   1.0000      -0.403689       -10.9849 
  38   1.0000      -0.398989       -10.8571 
  39   1.0000      -0.398547       -10.8450 
  40   1.0000      -0.390206       -10.6180 
  41   1.0000      -0.377285       -10.2665 
  42   1.0000      -0.371921       -10.1205 
  43   1.0000      -0.362614        -9.8672 
  44   1.0000      -0.347478        -9.4553 
  45   1.0000      -0.322915        -8.7870 
  46   1.0000      -0.276510        -7.5242 
  47   1.0000      -0.269728        -7.3397 
  48   1.0000      -0.249017        -6.7761 
  49   1.0000      -0.157621        -4.2891 
  50   0.0000       0.254516         6.9257 
  51   0.0000       0.274206         7.4615 
  52   0.0000       0.296887         8.0787 
  53   0.0000       0.338648         9.2151 
  54   0.0000       0.340119         9.2551 
  55   0.0000       0.346861         9.4386 
  56   0.0000       0.353735         9.6256 
  57   0.0000       0.373300        10.1580 
  58   0.0000       0.377791        10.2802 
  59   0.0000       0.388937        10.5835 
  60   0.0000       0.401641        10.9292 

                 SPIN DOWN ORBITALS
  NO   OCC          E(Eh)            E(eV) 
   0   1.0000     -24.638562      -670.4493 
   1   1.0000     -24.637159      -670.4112 
   2   1.0000     -14.352738      -390.5579 
   3   1.0000     -14.352585      -390.5537 
   4   1.0000     -10.247703      -278.8542 
   5   1.0000     -10.247584      -278.8509 
   6   1.0000     -10.232712      -278.4462 
   7   1.0000     -10.232656      -278.4447 
   8   1.0000     -10.196462      -277.4598 
   9   1.0000     -10.196429      -277.4589 
  10   1.0000     -10.190965      -277.3103 
  11   1.0000     -10.190933      -277.3094 
  12   1.0000     -10.184852      -277.1439 
  13   1.0000      -6.833928      -185.9606 
  14   1.0000      -1.148773       -31.2597 
  15   1.0000      -1.115554       -30.3558 
  16   1.0000      -0.984854       -26.7992 
  17   1.0000      -0.968462       -26.3532 
  18   1.0000      -0.795239       -21.6396 
  19   1.0000      -0.782114       -21.2824 
  20   1.0000      -0.769577       -20.9413 
  21   1.0000      -0.717385       -19.5210 
  22   1.0000      -0.650278       -17.6950 
  23   1.0000      -0.603835       -16.4312 
  24   1.0000      -0.584676       -15.9098 
  25   1.0000      -0.573239       -15.5986 
  26   1.0000      -0.565806       -15.3964 
  27   1.0000      -0.538392       -14.6504 
  28   1.0000      -0.503981       -13.7140 
  29   1.0000      -0.491838       -13.3836 
  30   1.0000      -0.481240       -13.0952 
  31   1.0000      -0.455558       -12.3964 
  32   1.0000      -0.446922       -12.1614 
  33   1.0000      -0.434143       -11.8136 
  34   1.0000      -0.425462       -11.5774 
  35   1.0000      -0.420726       -11.4485 
  36   1.0000      -0.414584       -11.2814 
  37   1.0000      -0.399690       -10.8761 
  38   1.0000      -0.396766       -10.7965 
  39   1.0000      -0.394532       -10.7358 
  40   1.0000      -0.386897       -10.5280 
  41   1.0000      -0.372170       -10.1273 
  42   1.0000      -0.369971       -10.0674 
  43   1.0000      -0.361117        -9.8265 
  44   1.0000      -0.346189        -9.4203 
  45   1.0000      -0.276577        -7.5260 
  46   1.0000      -0.264423        -7.1953 
  47   1.0000      -0.256761        -6.9868 
  48   0.0000       0.081174         2.2088 
  49   0.0000       0.174986         4.7616 
  50   0.0000       0.286915         7.8074 
  51   0.0000       0.301313         8.1991 
  52   0.0000       0.323339         8.7985 
  53   0.0000       0.340114         9.2550 
  54   0.0000       0.348560         9.4848 
  55   0.0000       0.356194         9.6925 
  56   0.0000       0.372155        10.1268 
  57   0.0000       0.374956        10.2031 
  58   0.0000       0.380345        10.3497 
*Only the first 10 virtual orbitals were printed.

                    ********************************
                    * MULLIKEN POPULATION ANALYSIS *
                    ********************************

--------------------------------------------
MULLIKEN ATOMIC CHARGES AND SPIN POPULATIONS
--------------------------------------------
   0 C :   -0.080345    0.382360
   1 C :    0.149455    0.203301
   2 C :   -0.036933    0.221653
   3 C :   -0.001654    0.007543
   4 C :    0.125359    0.437911
   5 C :    0.150163    0.203090
   6 C :   -0.037234    0.221899
   7 C :   -0.001671    0.007208
   8 C :    0.125402    0.437999
   9 N :   -0.142642   -0.019622
  10 N :   -0.142400   -0.019600
  11 B :    0.127407   -0.000309
  12 F :   -0.228323    0.001791
  13 F :   -0.227005    0.002296
  14 H :    0.028874   -0.002388
  15 H :    0.058287   -0.020342
  16 H :    0.019024   -0.011499
  17 H :    0.018948   -0.011491
  18 H :    0.028826   -0.002400
  19 H :    0.058238   -0.020335
  20 H :    0.008224   -0.019065
Sum of atomic charges         :   -0.0000000
Sum of atomic spin populations:    2.0000000

-----------------------------------------------------
MULLIKEN REDUCED ORBITAL CHARGES AND SPIN POPULATIONS
-----------------------------------------------------
CHARGE
  0 C s       :     3.263903  s :     3.263903
      pz      :     1.112363  p :     2.786317
      px      :     0.863247
      py      :     0.810707
      dz2     :     0.002753  d :     0.030126
      dxz     :     0.004898
      dyz     :     0.002616
      dx2y2   :     0.009388
      dxy     :     0.010471

  1 C s       :     3.086932  s :     3.086932
      pz      :     0.897010  p :     2.699669
      px      :     0.904143
      py      :     0.898516
      dz2     :     0.004657  d :     0.063944
      dxz     :     0.010703
      dyz     :     0.011607
      dx2y2   :     0.021349
      dxy     :     0.015629

  2 C s       :     3.257796  s :     3.257796
      pz      :     1.033605  p :     2.745885
      px      :     0.909030
      py      :     0.803250
      dz2     :     0.002806  d :     0.033253
      dxz     :     0.004491
      dyz     :     0.004290
      dx2y2   :     0.012249
      dxy     :     0.009417

  3 C s       :     3.216125  s :     3.216125
      pz      :     1.002578  p :     2.750801
      px      :     0.825967
      py      :     0.922255
      dz2     :     0.002827  d :     0.034729
      dxz     :     0.003837
      dyz     :     0.006148
      dx2y2   :     0.009736
      dxy     :     0.012180

  4 C s       :     3.180292  s :     3.180292
      pz      :     0.907677  p :     2.640711
      px      :     0.861754
      py      :     0.871281
      dz2     :     0.003953  d :     0.053637
      dxz     :     0.012434
      dyz     :     0.004079
      dx2y2   :     0.017672
      dxy     :     0.015500

  5 C s       :     3.086526  s :     3.086526
      pz      :     0.897414  p :     2.699384
      px      :     0.900196
      py      :     0.901773
      dz2     :     0.004623  d :     0.063927
      dxz     :     0.010929
      dyz     :     0.011381
      dx2y2   :     0.021221
      dxy     :     0.015773

  6 C s       :     3.257991  s :     3.257991
      pz      :     1.033356  p :     2.745988
      px      :     0.912857
      py      :     0.799775
      dz2     :     0.002750  d :     0.033255
      dxz     :     0.004725
      dyz     :     0.004096
      dx2y2   :     0.011577
      dxy     :     0.010107

  7 C s       :     3.216051  s :     3.216051
      pz      :     1.002879  p :     2.750892
      px      :     0.827065
      py      :     0.920949
      dz2     :     0.002804  d :     0.034727
      dxz     :     0.003916
      dyz     :     0.006066
      dx2y2   :     0.010250
      dxy     :     0.011692

  8 C s       :     3.180030  s :     3.180030
      pz      :     0.908163  p :     2.640934
      px      :     0.858071
      py      :     0.874700
      dz2     :     0.003959  d :     0.053634
      dxz     :     0.012333
      dyz     :     0.004103
      dx2y2   :     0.018037
      dxy     :     0.015202

  9 N s       :     3.405535  s :     3.405535
      pz      :     1.464921  p :     3.712779
      px      :     1.133358
      py      :     1.114501
      dz2     :     0.002208  d :     0.024327
      dxz     :     0.003818
      dyz     :     0.003562
      dx2y2   :     0.008673
      dxy     :     0.006067

 10 N s       :     3.405190  s :     3.405190
      pz      :     1.466828  p :     3.712884
      px      :     1.123844
      py      :     1.122212
      dz2     :     0.002172  d :     0.024326
      dxz     :     0.003964
      dyz     :     0.003427
      dx2y2   :     0.008916
      dxy     :     0.005847

 11 B s       :     2.677938  s :     2.677938
      pz      :     0.587356  p :     1.942094
      px      :     0.703790
      py      :     0.650947
      dz2     :     0.061928  d :     0.252562
      dxz     :     0.034289
      dyz     :     0.071247
      dx2y2   :     0.025653
      dxy     :     0.059444

 12 F s       :     3.857790  s :     3.857790
      pz      :     1.683115  p :     5.365834
      px      :     1.887134
      py      :     1.795585
      dz2     :     0.001454  d :     0.004699
      dxz     :     0.000707
      dyz     :     0.001820
      dx2y2   :     0.000377
      dxy     :     0.000341

 13 F s       :     3.858578  s :     3.858578
      pz      :     1.705161  p :     5.363788
      px      :     1.885124
      py      :     1.773503
      dz2     :     0.001213  d :     0.004640
      dxz     :     0.000613
      dyz     :     0.001910
      dx2y2   :     0.000495
      dxy     :     0.000409

 14 H s       :     0.947447  s :     0.947447
      pz      :     0.004484  p :     0.023679
      px      :     0.016130
      py      :     0.003065

 15 H s       :     0.918761  s :     0.918761
      pz      :     0.004378  p :     0.022952
      px      :     0.003505
      py      :     0.015070

 16 H s       :     0.957178  s :     0.957178
      pz      :     0.004968  p :     0.023798
      px      :     0.003698
      py      :     0.015132

 17 H s       :     0.957253  s :     0.957253
      pz      :     0.004920  p :     0.023799
      px      :     0.004382
      py      :     0.014496

 18 H s       :     0.947497  s :     0.947497
      pz      :     0.004514  p :     0.023677
      px      :     0.016061
      py      :     0.003102

 19 H s       :     0.918819  s :     0.918819
      pz      :     0.004420  p :     0.022943
      px      :     0.002811
      py      :     0.015712

 20 H s       :     0.967529  s :     0.967529
      pz      :     0.005504  p :     0.024247
      px      :     0.003206
      py      :     0.015536


SPIN
  0 C s       :     0.054164  s :     0.054164
      pz      :     0.319214  p :     0.325998
      px      :    -0.004530
      py      :     0.011314
      dz2     :    -0.000950  d :     0.002198
      dxz     :     0.003264
      dyz     :    -0.000203
      dx2y2   :     0.000062
      dxy     :     0.000025

  1 C s       :     0.008065  s :     0.008065
      pz      :     0.198601  p :     0.190451
      px      :    -0.010951
      py      :     0.002800
      dz2     :    -0.000576  d :     0.004785
      dxz     :     0.003987
      dyz     :     0.001180
      dx2y2   :     0.000109
      dxy     :     0.000085

  2 C s       :     0.023279  s :     0.023279
      pz      :     0.196316  p :     0.197683
      px      :    -0.002888
      py      :     0.004255
      dz2     :    -0.000588  d :     0.000691
      dxz     :     0.001636
      dyz     :    -0.000318
      dx2y2   :     0.000008
      dxy     :    -0.000046

  3 C s       :    -0.005197  s :    -0.005197
      pz      :     0.031525  p :     0.009101
      px      :    -0.007086
      py      :    -0.015339
      dz2     :    -0.000034  d :     0.003640
      dxz     :     0.000148
      dyz     :     0.003424
      dx2y2   :     0.000045
      dxy     :     0.000056

  4 C s       :     0.043282  s :     0.043282
      pz      :     0.370301  p :     0.395000
      px      :     0.007774
      py      :     0.016925
      dz2     :    -0.001063  d :    -0.000370
      dxz     :     0.000832
      dyz     :    -0.000114
      dx2y2   :    -0.000051
      dxy     :     0.000026

  5 C s       :     0.008052  s :     0.008052
      pz      :     0.198635  p :     0.190253
      px      :    -0.011550
      py      :     0.003168
      dz2     :    -0.000651  d :     0.004785
      dxz     :     0.004348
      dyz     :     0.000900
      dx2y2   :     0.000104
      dxy     :     0.000084

  6 C s       :     0.023318  s :     0.023318
      pz      :     0.196929  p :     0.197893
      px      :    -0.002922
      py      :     0.003886
      dz2     :    -0.000598  d :     0.000689
      dxz     :     0.001638
      dyz     :    -0.000314
      dx2y2   :    -0.000006
      dxy     :    -0.000031

  7 C s       :    -0.005243  s :    -0.005243
      pz      :     0.031329  p :     0.008809
      px      :    -0.006890
      py      :    -0.015630
      dz2     :    -0.000016  d :     0.003642
      dxz     :     0.000064
      dyz     :     0.003497
      dx2y2   :     0.000059
      dxy     :     0.000038

  8 C s       :     0.043294  s :     0.043294
      pz      :     0.371155  p :     0.395076
      px      :     0.007106
      py      :     0.016815
      dz2     :    -0.001059  d :    -0.000372
      dxz     :     0.000767
      dyz     :    -0.000056
      dx2y2   :    -0.000074
      dxy     :     0.000050

  9 N s       :    -0.007529  s :    -0.007529
      pz      :     0.005386  p :    -0.014298
      px      :    -0.010542
      py      :    -0.009142
      dz2     :     0.000054  d :     0.002205
      dxz     :     0.000888
      dyz     :     0.001240
      dx2y2   :     0.000041
      dxy     :    -0.000017

 10 N s       :    -0.007527  s :    -0.007527
      pz      :     0.005445  p :    -0.014279
      px      :    -0.011111
      py      :    -0.008613
      dz2     :     0.000008  d :     0.002205
      dxz     :     0.001109
      dyz     :     0.001067
      dx2y2   :     0.000040
      dxy     :    -0.000018

 11 B s       :    -0.000449  s :    -0.000449
      pz      :     0.002029  p :    -0.001001
      px      :    -0.002308
      py      :    -0.000722
      dz2     :    -0.000074  d :     0.001142
      dxz     :    -0.000187
      dyz     :     0.001485
      dx2y2   :    -0.000067
      dxy     :    -0.000016

 12 F s       :    -0.000006  s :    -0.000006
      pz      :     0.000196  p :     0.001795
      px      :     0.000230
      py      :     0.001369
      dz2     :    -0.000001  d :     0.000002
      dxz     :     0.000000
      dyz     :     0.000000
      dx2y2   :     0.000002
      dxy     :    -0.000001

 13 F s       :     0.000008  s :     0.000008
      pz      :     0.000152  p :     0.002286
      px      :     0.000253
      py      :     0.001881
      dz2     :    -0.000001  d :     0.000001
      dxz     :     0.000000
      dyz     :    -0.000000
      dx2y2   :     0.000002
      dxy     :    -0.000001

 14 H s       :    -0.002586  s :    -0.002586
      pz      :     0.000221  p :     0.000197
      px      :     0.000020
      py      :    -0.000044

 15 H s       :    -0.022601  s :    -0.022601
      pz      :     0.002187  p :     0.002259
      px      :    -0.000048
      py      :     0.000120

 16 H s       :    -0.012703  s :    -0.012703
      pz      :     0.001155  p :     0.001204
      px      :    -0.000040
      py      :     0.000089

 17 H s       :    -0.012694  s :    -0.012694
      pz      :     0.001151  p :     0.001203
      px      :    -0.000031
      py      :     0.000083

 18 H s       :    -0.002599  s :    -0.002599
      pz      :     0.000222  p :     0.000199
      px      :     0.000020
      py      :    -0.000043

 19 H s       :    -0.022592  s :    -0.022592
      pz      :     0.002182  p :     0.002258
      px      :    -0.000053
      py      :     0.000129

 20 H s       :    -0.021104  s :    -0.021104
      pz      :     0.001956  p :     0.002040
      px      :    -0.000063
      py      :     0.000147



                     *******************************
                     * LOEWDIN POPULATION ANALYSIS *
                     *******************************

-------------------------------------------
LOEWDIN ATOMIC CHARGES AND SPIN POPULATIONS
-------------------------------------------
   0 C :   -0.099939    0.319237
   1 C :    0.094266    0.211558
   2 C :   -0.046116    0.202715
   3 C :   -0.037532    0.041922
   4 C :    0.098745    0.373423
   5 C :    0.094398    0.211379
   6 C :   -0.045973    0.202892
   7 C :   -0.037516    0.041672
   8 C :    0.098664    0.373461
   9 N :    0.032138    0.009645
  10 N :    0.032172    0.009654
  11 B :   -0.327306    0.004358
  12 F :   -0.089851    0.001818
  13 F :   -0.093633    0.002308
  14 H :    0.045211   -0.000770
  15 H :    0.049247   -0.001326
  16 H :    0.044156   -0.000948
  17 H :    0.044135   -0.000948
  18 H :    0.045196   -0.000770
  19 H :    0.049216   -0.001329
  20 H :    0.050322    0.000051

----------------------------------------------------
LOEWDIN REDUCED ORBITAL CHARGES AND SPIN POPULATIONS
----------------------------------------------------
CHARGE
  0 C s       :     2.850052  s :     2.850052
      pz      :     1.093875  p :     3.165386
      px      :     1.025417
      py      :     1.046094
      dz2     :     0.006719  d :     0.084501
      dxz     :     0.010840
      dyz     :     0.004778
      dx2y2   :     0.030825
      dxy     :     0.031339

  1 C s       :     2.844696  s :     2.844696
      pz      :     0.882154  p :     2.911897
      px      :     1.078629
      py      :     0.951114
      dz2     :     0.010007  d :     0.149142
      dxz     :     0.021053
      dyz     :     0.023649
      dx2y2   :     0.056454
      dxy     :     0.037979

  2 C s       :     2.870435  s :     2.870435
      pz      :     1.018441  p :     3.088716
      px      :     1.022198
      py      :     1.048077
      dz2     :     0.006475  d :     0.086964
      dxz     :     0.009969
      dyz     :     0.007342
      dx2y2   :     0.034046
      dxy     :     0.029133

  3 C s       :     2.874139  s :     2.874139
      pz      :     0.984579  p :     3.073248
      px      :     1.043299
      py      :     1.045369
      dz2     :     0.006559  d :     0.090145
      dxz     :     0.006161
      dyz     :     0.013900
      dx2y2   :     0.027026
      dxy     :     0.036500

  4 C s       :     2.864610  s :     2.864610
      pz      :     0.899845  p :     2.912467
      px      :     0.961353
      py      :     1.051269
      dz2     :     0.008511  d :     0.124179
      dxz     :     0.025956
      dyz     :     0.006542
      dx2y2   :     0.042998
      dxy     :     0.040171

  5 C s       :     2.844692  s :     2.844692
      pz      :     0.881892  p :     2.911814
      px      :     1.080603
      py      :     0.949320
      dz2     :     0.009933  d :     0.149095
      dxz     :     0.021505
      dyz     :     0.023201
      dx2y2   :     0.055680
      dxy     :     0.038776

  6 C s       :     2.870440  s :     2.870440
      pz      :     1.018115  p :     3.088567
      px      :     1.023830
      py      :     1.046622
      dz2     :     0.006357  d :     0.086967
      dxz     :     0.010551
      dyz     :     0.006789
      dx2y2   :     0.031889
      dxy     :     0.031380

  7 C s       :     2.874132  s :     2.874132
      pz      :     0.984322  p :     3.073239
      px      :     1.044894
      py      :     1.044023
      dz2     :     0.006524  d :     0.090145
      dxz     :     0.006273
      dyz     :     0.013737
      dx2y2   :     0.028119
      dxy     :     0.035492

[...]
      px      :    -0.001786
      py      :     0.003365
      dz2     :    -0.000347  d :     0.010778
      dxz     :     0.008119
      dyz     :     0.002542
      dx2y2   :     0.000152
      dxy     :     0.000313

  2 C s       :     0.006649  s :     0.006649
      pz      :     0.223085  p :     0.231014
      px      :     0.000939
      py      :     0.006990
      dz2     :    -0.000648  d :     0.001035
      dxz     :     0.002673
      dyz     :    -0.000566
      dx2y2   :    -0.000201
      dxy     :    -0.000222

  3 C s       :    -0.002845  s :    -0.002845
      pz      :    -0.004217  p :    -0.014019
      px      :    -0.002385
      py      :    -0.007418
      dz2     :     0.000390  d :     0.010391
      dxz     :     0.000573
      dyz     :     0.008589
      dx2y2   :     0.000223
      dxy     :     0.000616

  4 C s       :     0.013510  s :     0.013510
      pz      :     0.378483  p :     0.397279
      px      :     0.006983
      py      :     0.011813
      dz2     :    -0.001088  d :    -0.001156
      dxz     :     0.001205
      dyz     :    -0.000429
      dx2y2   :    -0.000488
      dxy     :    -0.000356

  5 C s       :     0.003392  s :     0.003392
      pz      :     0.181721  p :     0.183042
      px      :    -0.002098
      py      :     0.003419
      dz2     :    -0.000508  d :     0.010779
      dxz     :     0.008863
      dyz     :     0.001971
      dx2y2   :     0.000172
      dxy     :     0.000282

  6 C s       :     0.006651  s :     0.006651
      pz      :     0.223538  p :     0.231030
      px      :     0.000689
      py      :     0.006803
      dz2     :    -0.000664  d :     0.001030
      dxz     :     0.002676
      dyz     :    -0.000558
      dx2y2   :    -0.000244
      dxy     :    -0.000180

  7 C s       :    -0.002848  s :    -0.002848
      pz      :    -0.004323  p :    -0.014108
      px      :    -0.002062
      py      :    -0.007722
      dz2     :     0.000409  d :     0.010391
      dxz     :     0.000485
      dyz     :     0.008676
      dx2y2   :     0.000242
      dxy     :     0.000580

  8 C s       :     0.013506  s :     0.013506
      pz      :     0.379172  p :     0.397152
      px      :     0.006319
      py      :     0.011661
      dz2     :    -0.001101  d :    -0.001156
      dxz     :     0.001223
      dyz     :    -0.000434
      dx2y2   :    -0.000522
      dxy     :    -0.000321

  9 N s       :    -0.001393  s :    -0.001393
      pz      :     0.007194  p :    -0.000590
      px      :    -0.004165
      py      :    -0.003619
      dz2     :     0.000220  d :     0.005624
      dxz     :     0.002367
      dyz     :     0.002621
      dx2y2   :     0.000318
      dxy     :     0.000098

 10 N s       :    -0.001391  s :    -0.001391
      pz      :     0.007255  p :    -0.000530
      px      :    -0.004505
      py      :    -0.003280
      dz2     :     0.000119  d :     0.005620
      dxz     :     0.002852
      dyz     :     0.002238
      dx2y2   :     0.000349
      dxy     :     0.000062

 11 B s       :    -0.000185  s :    -0.000185
      pz      :     0.002283  p :     0.001310
      px      :    -0.000646
      py      :    -0.000327
      dz2     :    -0.000058  d :     0.002893
      dxz     :    -0.000704
      dyz     :     0.003901
      dx2y2   :    -0.000237
      dxy     :    -0.000008

 12 F s       :     0.000060  s :     0.000060
      pz      :     0.000151  p :     0.002111
      px      :     0.000667
      py      :     0.001294
      dz2     :    -0.000000  d :     0.000015
      dxz     :    -0.000001
      dyz     :     0.000009
      dx2y2   :     0.000008
      dxy     :    -0.000001

 13 F s       :     0.000082  s :     0.000082
      pz      :     0.000091  p :     0.002620
      px      :     0.000784
      py      :     0.001745
      dz2     :    -0.000000  d :     0.000017
      dxz     :    -0.000001
      dyz     :     0.000010
      dx2y2   :     0.000010
      dxy     :    -0.000001

 14 H s       :    -0.000113  s :    -0.000113
      pz      :    -0.000254  p :    -0.000504
      px      :    -0.000037
      py      :    -0.000213

 15 H s       :    -0.012114  s :    -0.012114
      pz      :     0.008942  p :     0.010778
      px      :     0.000199
      py      :     0.001637

 16 H s       :    -0.007177  s :    -0.007177
      pz      :     0.005137  p :     0.006101
      px      :     0.000038
      py      :     0.000925

 17 H s       :    -0.007177  s :    -0.007177
      pz      :     0.005122  p :     0.006099
      px      :     0.000099
      py      :     0.000878

 18 H s       :    -0.000116  s :    -0.000116
      pz      :    -0.000252  p :    -0.000502
      px      :    -0.000033
      py      :    -0.000216

 19 H s       :    -0.012116  s :    -0.012116
      pz      :     0.008925  p :     0.010777
      px      :     0.000144
      py      :     0.001707

 20 H s       :    -0.009435  s :    -0.009435
      pz      :     0.008185  p :     0.009478
      px      :    -0.000038
      py      :     0.001331



                      *****************************
                      * MAYER POPULATION ANALYSIS *
                      *****************************

  NA   - Mulliken gross atomic population
  ZA   - Total nuclear charge
  QA   - Mulliken gross atomic charge
  VA   - Mayer's total valence
  BVA  - Mayer's bonded valence
  FA   - Mayer's free valence

  ATOM       NA         ZA         QA         VA         BVA        FA
  0 C      6.0697     6.0000    -0.0697     3.6841     3.5789     0.1053
  1 C      5.8709     6.0000     0.1291     3.9244     3.8869     0.0376
  2 C      6.0216     6.0000    -0.0216     3.7621     3.7035     0.0586
  3 C      6.0042     6.0000    -0.0042     3.7738     3.7722     0.0016
  4 C      5.8711     6.0000     0.1289     3.8397     3.6658     0.1739
  5 C      5.8705     6.0000     0.1295     3.9245     3.8871     0.0374
  6 C      6.0219     6.0000    -0.0219     3.7625     3.7039     0.0586
  7 C      6.0043     6.0000    -0.0043     3.7741     3.7725     0.0016
  8 C      5.8712     6.0000     0.1288     3.8397     3.6659     0.1738
  9 N      7.1418     7.0000    -0.1418     3.3693     3.3689     0.0005
 10 N      7.1416     7.0000    -0.1416     3.3693     3.3688     0.0005
 11 B      4.8809     5.0000     0.1191     4.2262     4.2262     0.0000
 12 F      9.2339     9.0000    -0.2339     1.2077     1.2077     0.0000
 13 F      9.2323     9.0000    -0.2323     1.2132     1.2132     0.0000
 14 H      0.9703     1.0000     0.0297     0.9892     0.9892    -0.0000
 15 H      0.9393     1.0000     0.0607     0.9905     0.9899     0.0006
 16 H      0.9782     1.0000     0.0218     0.9931     0.9928     0.0002
 17 H      0.9783     1.0000     0.0217     0.9931     0.9928     0.0002
 18 H      0.9703     1.0000     0.0297     0.9893     0.9893    -0.0000
 19 H      0.9394     1.0000     0.0606     0.9906     0.9899     0.0006
 20 H      0.9882     1.0000     0.0118     0.9991     0.9987     0.0004

  Mayer bond orders larger than 0.100000
B(  0-C ,  1-C ) :   1.2522 B(  0-C ,  5-C ) :   1.2526 B(  0-C , 20-H ) :   0.9834 
B(  1-C ,  2-C ) :   1.1320 B(  1-C ,  9-N ) :   1.2534 B(  2-C ,  3-C ) :   1.4698 
B(  2-C , 17-H ) :   1.0120 B(  3-C ,  4-C ) :   1.2458 B(  3-C , 18-H ) :   1.0040 
B(  4-C ,  9-N ) :   1.2150 B(  4-C , 19-H ) :   0.9821 B(  5-C ,  6-C ) :   1.1324 
B(  5-C , 10-N ) :   1.2529 B(  6-C ,  7-C ) :   1.4697 B(  6-C , 16-H ) :   1.0120 
B(  7-C ,  8-C ) :   1.2460 B(  7-C , 14-H ) :   1.0039 B(  8-C , 10-N ) :   1.2149 
B(  8-C , 15-H ) :   0.9820 B(  9-N , 11-B ) :   0.8284 B( 10-N , 11-B ) :   0.8289 
B( 11-B , 12-F ) :   1.1996 B( 11-B , 13-F ) :   1.2145 

-------
TIMINGS
-------

Total SCF time: 0 days 0 hours 0 min 23 sec 

Total time                  ....      23.425 sec
Sum of individual times     ....      23.073 sec  ( 98.5%)

SCF preparation             ....       0.504 sec  (  2.2%)
Fock matrix formation       ....      22.367 sec  ( 95.5%)
  Split-RI-J                ....       1.892 sec  (  8.5% of F)
  Chain of spheres X        ....      15.755 sec  ( 70.4% of F)
  XC integration            ....       2.606 sec  ( 11.7% of F)
    Basis function eval.    ....       0.427 sec  ( 16.4% of XC)
    Density eval.           ....       0.669 sec  ( 25.7% of XC)
    XC-Functional eval.     ....       0.059 sec  (  2.3% of XC)
    XC-Potential eval.      ....       1.144 sec  ( 43.9% of XC)
  CPCM terms                ....       2.087 sec  (  9.3% of F)
Diagonalization             ....       0.000 sec  (  0.0%)
Density matrix formation    ....       0.011 sec  (  0.0%)
Total Energy calculation    ....       0.001 sec  (  0.0%)
Population analysis         ....       0.058 sec  (  0.2%)
Orbital Transformation      ....       0.126 sec  (  0.5%)
Orbital Orthonormalization  ....       0.000 sec  (  0.0%)
NR solution                 ....       0.006 sec  (  0.0%)
TRAH solution               ....       0.006 sec  (  0.0%)
Finished LeanSCF after  23.5 sec

Maximum memory used throughout the entire LEANSCF-calculation: 27.9 MB


-------------------------------------------------------------------------------
                          DFT DISPERSION CORRECTION                            
                                                                               
                              DFTD3 V3.1  Rev 1                                
                          USING Becke-Johnson damping                          
-------------------------------------------------------------------------------
The B3LYP functional is recognized
Active option DFTDOPT                   ...         4   

molecular C6(AA) [au] = 5606.070530 


            DFT-D V3
 parameters
 s6 scaling factor         :     1.0000 
 a1 scaling factor         :     0.3981 
 s8 scaling factor         :     1.9889 
 a2 scaling factor         :     4.4211 
 ad hoc parameters k1-k3   :    16.0000     1.3333    -4.0000 

 Edisp/kcal,au: -27.146269720564  -0.043260329839 
 E6   /kcal   : -12.454656043 
 E8   /kcal   : -14.691613677 
 % E8         :  54.120193413 

-------------------------   ----------------
Dispersion correction           -0.043260330
-------------------------   ----------------


-------------------------   --------------------
FINAL SINGLE POINT ENERGY      -680.515792421223
-------------------------   --------------------

                                *** OPTIMIZATION RUN DONE ***



           ************************************************************
           *        Program running with 4 parallel MPI-processes     *
           *              working on a common directory               *
           ************************************************************

------------------------------------------------------------------------------
                              ORCA PROPERTY CALCULATIONS
------------------------------------------------------------------------------

GBWName                                 ... BODIPY_T1.gbw
Number of atoms                         ...     21
Number of basis functions               ...    231
Max core memory                         ...   4096 MB

Electric properties:
Dipole moment                           ... YES
Quadrupole moment                       ...  NO
Static polarizability (Dipole/Dipole)   ...  NO
Static polarizability (Dipole/Quad.)    ...  NO
Static polarizability (Quad./Quad.)     ...  NO
Static polarizability (Velocity)        ...  NO
Static hyperpolarizability              ...  NO

Atomic electric properties:
Dipole moment                           ...  NO
Quadrupole moment                       ...  NO
Static polarizability                   ...  NO

Choice of electric origin               ... Center of mass
Position of electric origin             ...    -3.082747     5.832406     0.040272

General magnetic properties:
Magnetizability                         ...  NO

EPR properties:
g-Tensor (aka g-matrix)                 ...  NO
Zero-Field splitting spin-orbit         ...  NO
Zero-field splitting spin-spin          ...  NO
Hyperfine couplings                     ...  NO (   0 nuclei)
Quadrupole couplings                    ...  NO (   0 nuclei)
Contact density                         ...  NO (   0 nuclei)

NMR properties:
Chemical shifts                         ...  NO (   0 nuclei)
Spin-rotation constants                 ...  NO (   0 nuclei)
Spin-spin couplings                     ...  NO (   0 nuclei,    0 pairs)

Choice of magnetic origin               ... GIAO
Position of magnetic origin             ...     0.000000     0.000000     0.000000

Properties with geometric perturbations:
SCF Hessian                             ...  NO
IR spectrum                             ...  NO
VCD spectrum                            ...  NO
X-ray spectroscopy properties:
SCF XES/XAS/RIXS spectra                ...  NO

SCF SOC stabilization energy            ...  NO
Diagonal Born-Oppenheimer correction    ...  NO

-------------
DIPOLE MOMENT
-------------

Method             : SCF
Type of density    : Electron Density
Multiplicity       :   3
Irrep              :   0
Energy             :  -680.4725320913844371 Eh
Basis              : AO
                                X                 Y                 Z
Electronic contribution:      0.380047192      -8.038730115       0.517576651
Nuclear contribution   :     -0.472952274      10.054759848      -0.605541678
                        -----------------------------------------
Total Dipole Moment    :     -0.092905082       2.016029734      -0.087965027
                        -----------------------------------------
Magnitude (a.u.)       :      2.020085416
Magnitude (Debye)      :      5.134649070



--------------------
Rotational spectrum 
--------------------
 
Rotational constants in cm-1:             0.042620             0.021277             0.015481 
Rotational constants in MHz :          1277.707579           637.857653           464.105657 

Dipole components along the rotational axes: 
x,y,z [a.u.] :     0.002208     2.017911     0.093679 
x,y,z [Debye]:     0.005613     5.129122     0.238113 

 

Dipole moment calculation done in   0.0 sec 

Maximum memory used throughout the entire PROP-calculation: 12.6 MB

--------------------------------
SUGGESTED CITATIONS FOR THIS RUN
--------------------------------

Below you find a list of papers that are relevant to this ORCA run
We neither can nor want to force you to cite these papers, but we appreciate if you do
You receive ORCA, which is the product of decades of hard work by many enthusiastic individuals, for free
The only thing we kindly ask in return is that you cite our papers,
We deeply appreciate it, if you show your appreciation for ORCA by not just citing the generic ORCA reference.

Please note that relegating all ORCA citations to the supporting information does *not* help us.
SI sections are not indexed - citations you put there will not count into any citation statistics
But we need these citations in order to attract the funding resources that allow us to do what we are doing

Therefore, if you are a happy ORCA user, please consider citing a few of the papers listed below in the main body of your paper

In addition to the list printed below, the program has created the file BODIPY_T1.bibtex that contains the list in bibtex format
You can import this file easily into all common literature databanks and citation aid programs


List of essential papers. We consider these as the minimum necessary citations

  1. Neese, F.
     Software update: the ORCA program system, version 6.0
     WIRES Comput. Molec. Sci. 2025 15(1), e70019
     doi.org/10.1002/wcms.7019

List of papers to cite with high priority. The work reported in these papers was absolutely
necessary for this run to complete.
Our perspective: the developers of density functionals and basis sets usually get cited in chemistry papers
Good! But without the algorithms to do something with them, the functionals or basis sets would not do anything.
Hence, in our opinion, the algorithm design and method developments papers are equally worthy of getting cited

  1. Neese, F.
     An improvement of the resolution of the identity approximation for the formation of the Coulomb matrix
     J. Comp. Chem. 2003 24(14), 1740-1747
     doi.org/10.1002/jcc.10318
  2. Neese, F.; Wennmohs, F.; Hansen, A.; Becker, U.
     Efficient, approximate and parallel Hartree-Fock and hybrid DFT calculations. A 'chain-of-spheres' algorithm for the Hartree-Fock exchange
     Chem. Phys. 2009 356(1-3), 98-109
     doi.org/10.1016/j.chemphys.2008.10.036
  3. Grimme, S.; Antony, J.; Ehrlich, S.; Krieg, H.
     A consistent and accurate ab initio parametrization of density functional dispersion correction (DFT-D) for the 94 elements H-Pu
     J. Chem. Phys. 2010 132 , 154104
     doi.org/10.1063/1.3382344
  4. Grimme, S.; Ehrlich, S.; Goerigk, L.
     Effect of the damping function in dispersion corrected density functional theory
     J. Comput. Chem. 2011 32(7), 1456-1465
     doi.org/10.1002/jcc.21759
  5. Garcia-Rates, M.; Neese, F.
     Effect of the Solute Cavity on the Solvation Energy and its Derivatives within the Framework of the Gaussian Charge Scheme
     J. Comput. Chem. 2020 41 , 922-939
     doi.org/10.1002/jcc.26139
  6. Helmich-Paris, B.; de Souza, B.; Neese, F.; Izsák, R.
     An improved chain of spheres for exchange algorithm
     J. Chem. Phys. 2021 155(10), 104109
     doi.org/10.1063/5.0058766
  7. Helmich-Paris, B.
     A trust-region augmented Hessian implementation for restricted and unrestricted Hartree–Fock and Kohn–Sham methods
     J. Chem. Phys. 2021 154 , 164104
     doi.org/10.1063/5.0040798
  8. Neese, F.
     The SHARK Integral Generation and Digestion System
     J. Comp. Chem. 2022 44(3), 381
     doi.org/10.1002/jcc.26942

List of suggested additional citations. These are papers that are important in the 'surrounding' of 
of this run, or papers that preceded the highly important papers. If you like your results we are grateful for a citation.

  1. Izsak, R.; Neese, F.
     An overlap fitted chain of spheres exchange method
     J. Chem. Phys. 2011 135 , 144105
     doi.org/10.1063/1.3646921
  2. Izsak, R.; Hansen, A.; Neese, F.
     The resolution of identity and chain of spheres approximations for the LPNO-CCSD singles Fock term
     Molec. Phys. 2012 110 , 2413-2417
     doi.org/10.1080/00268976.2012.687466
  3. Neese, F.
     The ORCA program system
     WIRES Comput. Molec. Sci. 2012 2(1), 73-78
     doi.org/10.1002/wcms.81
  4. Izsak, R.; Neese, F.; Klopper, W.
     Robust fitting techniques in the chain of spheres approximation to the Fock exchange: The role of the complementary space
     J. Chem. Phys. 2013 139 , 
     doi.org/10.1063/1.4819264
  5. Neese, F.
     Software update: the ORCA program system, version 4.0
     WIRES Comput. Molec. Sci. 2018 8(1), 1-6
     doi.org/10.1002/wcms.1327
  6. Neese, F.; Wennmohs, F.; Becker, U.; Riplinger, C.
     The ORCA quantum chemistry program package
     J. Chem. Phys. 2020 152(22), 224108
     doi.org/10.1063/5.0004608
  7. Neese, F.
     Software update: The ORCA program system—Version 5.0
     WIRES Comput. Molec. Sci. 2022 12(1), e1606
     doi.org/10.1002/wcms.1606

Timings for individual modules:

Sum of individual times          ...      616.193 sec (=  10.270 min)
Startup calculation              ...       21.808 sec (=   0.363 min)   3.5 %
SCF iterations                   ...      381.543 sec (=   6.359 min)  61.9 %
Property calculations            ...        0.452 sec (=   0.008 min)   0.1 %
SCF Gradient evaluation          ...      212.315 sec (=   3.539 min)  34.5 %
Geometry relaxation              ...        0.075 sec (=   0.001 min)   0.0 %
                             ****ORCA TERMINATED NORMALLY****
TOTAL RUN TIME: 0 days 0 hours 10 minutes 21 seconds 335 msec
