
                                 *****************
                                 * O   R   C   A *
                                 *****************

                                            #,                                       
                                            ###                                      
                                            ####                                     
                                            #####                                    
                                            ######                                   
                                           ########,                                 
                                     ,,################,,,,,                         
                               ,,#################################,,                 
                          ,,##########################################,,             
                       ,#########################################, ''#####,          
                    ,#############################################,,   '####,        
                  ,##################################################,,,,####,       
                ,###########''''           ''''###############################       
              ,#####''   ,,,,##########,,,,          '''####'''          '####       
            ,##' ,,,,###########################,,,                        '##       
           ' ,,###''''                  '''############,,,                           
         ,,##''                                '''############,,,,        ,,,,,,###''
      ,#''                                            '''#######################'''  
     '                                                          ''''####''''         
             ,#######,   #######,   ,#######,      ##                                
            ,#'     '#,  ##    ##  ,#'     '#,    #''#        ,####,    ,#,          
            ##       ##  ##   ,#'  ##            #'  '#       #'       ,# #          
            ##       ##  #######   ##           ,######,      #####,      #          
            '#,     ,#'  ##    ##  '#,     ,#' ,#      #,     #,   #      #          
             '#######'   ##     ##  '#######'  #'      '#     '####' #    #          



                #########################################################
                #                        -***-                          #
                #          Department of theory and spectroscopy        #
                #                                                       #
                #                      Frank Neese                      #
                #                                                       #
                #     Directorship, Architecture, Infrastructure        #
                #                    SHARK, DRIVERS                     #
                #        Core code/Algorithms in most modules           #
                #                                                       #
                #        Max Planck Institute fuer Kohlenforschung      #
                #                Kaiser Wilhelm Platz 1                 #
                #                 D-45470 Muelheim/Ruhr                 #
                #                      Germany                          #
                #                                                       #
                #                  All rights reserved                  #
                #                        -***-                          #
                #########################################################


                         Program Version 6.1.0  -  RELEASE   -
                                (GIT: $679e74b$)
                          ($2025-06-10 18:02:51 +0200$)


 With contributions from (in alphabetic order):
[Max-Planck-Institut fuer Kohlenforschung]                               
  Daniel Aravena         : Magnetic Suceptibility                        
  Michael Atanasov       : Ab Initio Ligand Field Theory (pilot matlab implementation)
  Alexander A. Auer      : GIAO ZORA, VPT2 properties, NMR spectrum      
  Ute Becker             : All parallelization in ORCA, NUMFREQ, NUMCALC 
  Giovanni Bistoni       : ED, misc. LED, open-shell LED, HFLD           
  Dmytro Bykov           : pre 5.0 version of the SCF Hessian            
  Marcos Casanova-Páez   : Triplet and SCS-CIS(D). UHF-(DLPNO)-IP/EA/STEOM-CCSD. UHF-CVS-IP/STEOM-CCSD   
  Vijay G. Chilkuri      : MRCI spin determinant printing, contributions to CSF-ICE 
  Pauline Colinet        : FMM embedding                                 
  Dipayan Datta          : RHF DLPNO-CCSD density                        
  Achintya Kumar Dutta   : EOM-CC, STEOM-CC                              
  Nicolas Foglia         : Exact transition moments, OPA infrastructure, MCD improvements    
  Dmitry Ganyushin       : Spin-Orbit,Spin-Spin,Magnetic field MRCI      
  Miquel Garcia-Rates    : C-PCM and meta-GGA Hessian, CCSD/C-PCM, Gaussian charge scheme 
  Tiago L. C. Gouveia    : GS-ROHF, GS-ROCIS                             
  Yang Guo               : DLPNO-NEVPT2, F12-NEVPT2, CIM, IAO-localization        
  Andreas Hansen         : Spin unrestricted coupled pair/coupled cluster methods 
  Ingolf Harden          : AUTO-CI MPn and infrastructure                
  Benjamin Helmich-Paris : MC-RPA, TRAH-(SCF,CASSCF), AVAS, COSX integrals, SCF dyn. polar., MC-PDFT, srDFT 
  Lee Huntington         : MR-EOM, pCC                                   
  Robert Izsak           : Overlap fitted RIJCOSX, COSX-SCS-MP3, EOM     
  Riya Kayal             : Wick's Theorem for AUTO-CI, AUTO-CI UHF-CCSDT 
  Emily Kempfer          : AUTO-CI RHF CISDT and CCSDT, approximate NEVPT4
  Christian Kollmar      : KDIIS, OOCD, Brueckner-CCSD(T), CCSD density, CASPT2, CASPT2-K, improved NEVPT2 
  Axel Koslowski         : Symmetry handling                             
  Simone Kossmann        : meta-GGA functionals, TD-DFT gradient, OOMP2, (MP2 Hessian; deprecated post 5.0) 
  Lucas Lang             : DCDCAS, Hyperfine gauge corrections, ICE-SOC+SSC
  Marvin Lechner         : AUTO-CI (C++ implementation), FIC-MRCC        
  Spencer Leger          : CASSCF response                               
  Dagmar Lenk            : GEPOL surface, SMD, ORCA-2-JSON               
  Dimitrios Liakos       : Extrapolation schemes; Compound Job, Property file
  Dimitrios Manganas     : Further ROCIS development; embedding schemes. LFT, Crystal Embedding 
  Dimitrios Pantazis     : SARC Basis sets                               
  Anastasios Papadopoulos: AUTO-CI, single reference methods and gradients 
  Taras Petrenko         : pre 6.0 DFT Hessian and TD-DFT gradient,  ECA, NRVS 
  Petra Pikulova         : Analytic Raman intensities                    
  Peter Pinski           : DLPNO-MP2, DLPNO-MP2 Gradient                 
  Shashank Vittal Rao    : ES-AILFT, MagRelax                            
  Christoph Reimann      : Effective Core Potentials                     
  Marius Retegan         : Local ZFS, SOC                                
  Christoph Riplinger    : Optimizer, TS searches, QM/MM, DLPNO-CCSD(T), (RO)-DLPNO pert. Triples 
  Michael Roemelt        : Original ROCIS implementation, recursive CI coupling coefficients
  Masaaki Saitow         : Open-shell DLPNO-CCSD energy and density      
  Barbara Sandhoefer     : DKH picture change effects                    
  Yorick L. A. Schmerwitz: GMF and freeze-and-release deltaSCF, NEB S-IDPP initial path                    
  Kantharuban Sivalingam : CASSCF convergence/infrastructure, NEVPT2, NEVPT3, NEVPT4(SD), FIC-MRCI and CEPA variants
  Bernardo de Souza      : ESD, SOC TD-DFT                               
  Georgi L. Stoychev     : AutoAux, RI-MP2 NMR, DLPNO-MP2 response, X2C  
  Van Anh Tran           : RI-MP2 g-tensors                              
  Willem Van den Heuvel  : Paramagnetic NMR                              
  Zikuan Wang            : NOTCH, Electric field optimization            
  Frank Wennmohs         : Technical directorship and infrastructure     
  Hang Xu                : AUTO-CI-Response properties                   
                                                                         
[FACCTs GmbH]                                                            
  Markus Bursch, Nicolas Foglia, Miquel Garcia-Rates, Ingolf Harden, Hagen Neugebauer, Anastasios Papadopoulos, 
  Christoph Riplinger, Bernardo de Souza, Georgi L. Stoychev                                                    
                                                                 
  APM, various basis sets, CI-OPT, improved COSX, DLPNO-Multilevel,           
  DOCKER, DRACO, updates on ESD, Fragmentator, GOAT, IRC, LR-CPCM, L-BFGS, MBIS, meta-GGA TD-DFT gradient, ML-optimized integration grids, 
  MM, NACMEs, nearIR, NEB, NEB-TS, NL-DFT gradient (VV10), 2- and 3-layer-ONIOM, interface openCOSMO-RS, QMMM,   
  Crystal-QMMM, RESP, rigid body optimization, SF, symmetry and pop. for TD-DFT, various functionals, SOLVATOR                                   
                                                                         
[Other institutions]                                                     
  V. Asgeirsson          : NEB                                           
  Christoph Bannwarth    : sTDA-DFT, sTD-DFT, PBEh-3c, B97-3c, D3        
  Giovanni Bistoni       : ETS/NOCV, ADLD/ADEX, COVALED                  
  Martin Brehm           : Molecular dynamics                            
  Ronald Cardenas        : ETS/NOCV                                      
  Martina Colucci        : COVALED                                       
  Sebastian Ehlert       : rSCAN, r2SCAN, r2SCAN-3c, D4, dhf basis sets  
  Marvin Friede          : D4 for Fr, Ra, Ac-Lr                          
  Lars Goerigk           : TD-DFT with DH, B97 family of functionals     
  Stefan Grimme          : VdW corrections, initial TS optimization, DFT functionals, gCP, sTDA/sTD-DF 
  Waldemar Hujo          : DFT-NL                                        
  H. Jonsson             : NEB                                           
  Holger Kruse           : gCP                                           
  Marcel Mueller         : wB97X-3c, vDZP basis set                      
  Hagen Neugebauer       : wr2SCAN, Native XTB                           
  Gianluca Regni         : ADLD/ADEX                                     
  Tobias Risthaus        : pre 6.0 range-separated hybrid DFT and stability analysis
  Lukas Wittmann         : regularized MP2, r2SCAN double-hybrids, wr2SCAN        
                                                                         
We gratefully acknowledge several colleagues who have allowed us to      
interface, adapt or use parts of their codes:                            
  Ed Valeev, F. Pavosevic, A. Kumar             : LibInt (2-el integral package), F12 methods 
  Garnet Chan, S. Sharma, J. Yang, R. Olivares  : DMRG                   
  Ulf Ekstrom                                   : XCFun DFT Library      
  Mihaly Kallay                                 : mrcc  (arbitrary order and MRCC methods)
  Frank Weinhold                                : gennbo (NPA and NBO analysis)           
  Simon Mueller                                 : openCOSMO-RS                            
  Christopher J. Cramer and Donald G. Truhlar   : smd solvation model                     
  S Lehtola, MJT Oliveira, MAL Marques          : LibXC Library                           
  Liviu Ungur et al                             : ANISO software                          


 Your calculation uses the libint2 library for the computation of 2-el integrals
 For citations please refer to: http://libint.valeyev.net

 Your ORCA version has been built with support for libXC version: 7.0.0
 For citations please refer to: https://libxc.gitlab.io

 This ORCA versions uses:
   CBLAS   interface :  Fast vector & matrix operations
   LAPACKE interface :  Fast linear algebra routines
   SCALAPACK package :  Parallel linear algebra routines
   Shared memory     :  Shared parallel matrices
   BLAS/LAPACK       :  OpenBLAS 0.3.29  USE64BITINT DYNAMIC_ARCH NO_AFFINITY Haswell SINGLE_THREADED
        Core in use  :  Haswell
   Copyright (c) 2011-2014, The OpenBLAS Project


  ***********************************
  * Starting time: Tue Dec 30 06:24:02 2025
  * Host name:     corine-kengne-Latitude-5491
  * Process ID:    41004
  * Working dir.:  /home/corine-kengne/stage_BODIPY/OO-DFT /Iodo-BODIPY/Etats_Triplets
  ***********************************

Your calculation utilizes the atom-pairwise dispersion correction
with the Becke-Johnson damping scheme (D3BJ)


Your calculation utilizes the SMD solvation module
Please cite in your paper:
Marenich, A. V.; Cramer, C. J.; Truhlar, D. G. J. Phys. Chem. B 2009, 113, 6378 

Warning: RI is on but no J-basis has been assigned. Assigning Def2/J (nothing to worry about!)
================================================================================

cite the ECPs for I  [Def2-ECP] as follows:
Ce-Yb(ecp-28): M. Dolg, H. Stoll, H.Preuss, J. Chem. Phys., 1989, 90, 1730-1734.
Y-Cd(ecp-28), Hf-Hg(ecp-46): D. Andrae,U. Haeussermann, M. Dolg, H. Stoll, H. Preuss, Theor. Chim. Acta, 1990, 77, 123-141.
In-Sb(ecp-28), Tl-Bi(ecp-46): B. Metz, H. Stoll, M. Dolg, J. Chem. Phys., 2000, 113, 2563-2569.
Te-Xe(ecp-28), Po-Rn(ecp-46): K. A. Peterson, D. Figgen, E. Goll, H. Stoll, M. Dolg, J. Chem. Phys., 2003, 119, 11113-11123.
Rb(ecp-28), Cs(ecp-46): T. Leininger, A. Nicklass, W. Kuechle, H. Stoll, M. Dolg, A. Bergner, Chem. Phys. Lett., 1996, 255, 274-280.
Sr(ecp-28), Ba(ecp-46): M. Kaupp, P. V. Schleyer, H. Stoll and H. Preuss, J. Chem. Phys., 1991, 94, 1360-1366.
La(ecp-46): M. Dolg, H. Stoll, A. Savin, H. Preuss, Theor. Chim. Acta, 1989, 75, 173-194.
Lu(ecp-28): X. Cao, M. Dolg, J. Chem. Phys., 2001, 115, 7348-7355.

ECP parameters for I  [Def2-ECP] have been obtained from:
TURBOMOLE (7.0.2)

----- Orbital basis set information -----
Your calculation utilizes the basis: def2-SVP
   F. Weigend and R. Ahlrichs, Phys. Chem. Chem. Phys. 7, 3297 (2005).

----- AuxJ basis set information -----
Your calculation utilizes the auxiliary basis: def2/J
   H-Rn: F. Weigend, Phys. Chem. Chem. Phys. 8, 1057 (2006).
   Fr-Lr: K. Eichkorn, F. Weigend, O. Treutler, R. Ahlrichs; Theor. Chem. Acc. 97, 119 (1997).

================================================================================
                                        WARNINGS
                       Please study these warnings very carefully!
================================================================================

WARNING: Old DensityContainer found on disk!
         Will remove this file - 
         If you want to keep old densities, please start your calculation with a different basename. 


WARNING: Geometry Optimization
  ===> : Switching off AutoStart
         For restart on a previous wavefunction, please use MOREAD

================================================================================
                                       INPUT FILE
================================================================================
NAME = Iodo_T1.inp
|  1> ! Opt UKS B3LYP D3BJ def2-SVP TRAH TightSCF TIGHTOPT    
|  2> ! CPCM
|  3> ! SMD(Water)
|  4> 
|  5> %pal
|  6>   nprocs 4
|  7> end
|  8> 
|  9> %cpcm
| 10>   SMDSolvent "Water"  # for more complex biological media
| 11> end
| 12> 
| 13> %scf    # Confirme l'utilisation d'un formalisme de spin non restreint
| 14>   HFTyp UKS
| 15>   #SCF_ALGORITHM DIIS_TRAH Utilise une combinaison de DIIS et TRAH (Trust Radius Augmented Hessian) pour garantir la convergence
| 16>   MaxIter 500
| 17>   ConvForce 1e-6   #Définit un seuil de convergence 
| 18> end
| 19> 
| 20> %geom
| 21>   MaxStep 0.2  # Limite la taille maximale de déplacement des atomes  pour éviter que la géométrie ne se déforme de manière irréaliste pendant l'optimisation
| 22>   Trust 0.3    # Définit le rayon de confiance initial de l'algorithme à 0,3, contrôlant la zone dans laquelle ORCA estime que son approximation de la surface d'énergie est fiable
| 23> end
| 24> 
| 25> * xyz 0 3  # Charge 0, Multiplicité  3 (Triplet)
| 26> C          -4.80286961294822      2.86241884521691     -0.09162059387446
| 27>   C          -2.25413447161301      3.07995857318805     -0.04742108302624
| 28>   C           0.29723457589880      2.89597218852895     -0.00306216759662
| 29>   C          -5.61674793025061      1.73072578689259     -0.10413927162744
| 30>   C           1.12588700187278      1.77510888699339      0.01245436117753
| 31>   C           0.29656330350303      0.62814331318577     -0.00095240984928
| 32>   C          -4.77247926271982      0.59478246645374     -0.08729608039602
| 33>   N          -3.49044449911921      0.99259759431406     -0.06511500813329
| 34>   C          -1.03458513860126      2.40510178576333     -0.02578596290247
| 35>   F          -2.24674138552214     -0.73128261047876      1.09843186744586
| 36>   F          -2.21191215466075     -0.73453245063708     -1.18207368371683
| 37>   B          -2.23429925634671      0.06605117070409     -0.04303359160578
| 38>   I          -7.70957827753255      1.66747016424494     -0.13990013620246
| 39>   I           3.21930949469901      1.73940156574811      0.04755623172677
| 40>   C          -3.46475097627155      2.38914762359837     -0.06714806962082
| 41>   N          -0.99054829527993      1.00898700688042     -0.02386215348053
| 42>   H          -5.10458093600341      3.90774621202303     -0.09890650570845
| 43>   H          -2.26134508930089      4.17131555035551     -0.04901696749667
| 44>   H           0.58508244813654      3.94520729680581      0.00109928952321
| 45>   H           0.58792918713730     -0.42130905988642      0.00517029949629
| 46>   H          -5.04992272507737     -0.45844990989480     -0.09059436413235
| 47> *
| 48> 
| 49> 
| 50>                          ****END OF INPUT****
================================================================================

                       *****************************
                       * Geometry Optimization Run *
                       *****************************

Geometry optimization settings:
Update method            Update   .... BFGS
Choice of coordinates    CoordSys .... (2022) Redundant Internals
Initial Hessian          InHess   .... Almloef's Model
Max. no of cycles        MaxIter  .... 63

Convergence Tolerances:
Energy Change            TolE     ....  1.0000e-06 Eh
Max. Gradient            TolMAXG  ....  1.0000e-04 Eh/bohr
RMS Gradient             TolRMSG  ....  3.0000e-05 Eh/bohr
Max. Displacement        TolMAXD  ....  1.0000e-03 bohr
RMS Displacement         TolRMSD  ....  6.0000e-04 bohr
Strict Convergence                .... False

------------------------------------------------------------------------------
                        ORCA OPTIMIZATION COORDINATE SETUP
------------------------------------------------------------------------------

The optimization will be done in redundant internal coordinates (2022)
Making redundant internal coordinates   ...  (2022 redundants) done
Evaluating the initial hessian          ...  (Almloef) done
Evaluating the coordinates              ...  done
Calculating the B-matrix                .... done
Calculating the G-matrix                .... done
The number of degrees of freedom        ....  120

    -----------------------------------------------------------------
                    Redundant Internal Coordinates


    -----------------------------------------------------------------
         Definition                    Initial Value    Approx d2E/dq
    -----------------------------------------------------------------
      1. B(C   3,C   0)                  1.3940         0.615644   
      2. B(C   4,C   2)                  1.3940         0.615679   
      3. B(C   5,C   4)                  1.4154         0.569038   
      4. B(C   6,C   3)                  1.4154         0.569072   
      5. B(N   7,C   6)                  1.3425         0.666232   
      6. B(C   8,C   2)                  1.4196         0.560456   
      7. B(C   8,C   1)                  1.3940         0.615711   
      8. B(B  11,F  10)                  1.3924         0.596919   
      9. B(B  11,F   9)                  1.3924         0.596925   
     10. B(B  11,N   7)                  1.5610         0.345775   
     11. B(I  12,C   3)                  2.0941         0.158088   
     12. B(I  13,C   4)                  2.0940         0.158129   
     13. B(C  14,N   7)                  1.3968         0.545816   
     14. B(C  14,C   1)                  1.3940         0.615711   
     15. B(C  14,C   0)                  1.4196         0.560506   
     16. B(N  15,B  11)                  1.5609         0.345964   
     17. B(N  15,C   8)                  1.3968         0.545770   
     18. B(N  15,C   5)                  1.3425         0.666359   
     19. B(H  16,C   0)                  1.0880         0.362726   
     20. B(H  17,C   1)                  1.0914         0.358276   
     21. B(H  18,C   2)                  1.0880         0.362741   
     22. B(H  19,C   5)                  1.0892         0.361205   
     23. B(H  20,C   6)                  1.0892         0.361204   
     24. A(C  14,C   0,H  16)          125.5786         0.347376   
     25. A(C   3,C   0,H  16)          128.1706         0.352922   
     26. A(C   3,C   0,C  14)          106.2507         0.425739   
     27. A(C   8,C   1,C  14)          121.3381         0.432983   
     28. A(C   8,C   1,H  17)          119.3348         0.352192   
     29. A(C  14,C   1,H  17)          119.3271         0.352192   
     30. A(C   8,C   2,H  18)          125.5723         0.347373   
     31. A(C   4,C   2,H  18)          128.1772         0.352928   
     32. A(C   4,C   2,C   8)          106.2505         0.425736   
     33. A(C   0,C   3,C   6)          107.6482         0.426897   
     34. A(C   0,C   3,I  12)          127.4566         0.363343   
     35. A(C   6,C   3,I  12)          124.8952         0.358502   
     36. A(C   2,C   4,C   5)          107.6471         0.426896   
     37. A(C   5,C   4,I  13)          124.8956         0.358514   
     38. A(C   2,C   4,I  13)          127.4572         0.363363   
     39. A(C   4,C   5,N  15)          109.3922         0.430170   
     40. A(C   4,C   5,H  19)          128.6076         0.348015   
     41. A(N  15,C   5,H  19)          122.0002         0.355229   
     42. A(N   7,C   6,H  20)          121.9951         0.355217   
     43. A(C   3,C   6,N   7)          109.3895         0.430160   
     44. A(C   3,C   6,H  20)          128.6154         0.348018   
     45. A(C   6,N   7,B  11)          126.3547         0.394608   
     46. A(B  11,N   7,C  14)          125.3562         0.381125   
     47. A(C   6,N   7,C  14)          108.2890         0.424172   
     48. A(C   2,C   8,N  15)          108.4220         0.413978   
     49. A(C   1,C   8,N  15)          120.7626         0.420968   
     50. A(C   1,C   8,C   2)          130.8154         0.425740   
     51. A(N   7,B  11,F   9)          110.1379         0.388756   
     52. A(F  10,B  11,N  15)          110.1553         0.388792   
     53. A(F   9,B  11,N  15)          110.0580         0.388793   
     54. A(N   7,B  11,N  15)          106.4273         0.355391   
     55. A(F   9,B  11,F  10)          109.9685         0.426340   
     56. A(N   7,B  11,F  10)          110.0370         0.388755   
     57. A(C   1,C  14,N   7)          120.7594         0.420974   
     58. A(C   0,C  14,N   7)          108.4225         0.413991   
     59. A(C   0,C  14,C   1)          130.8180         0.425747   
     60. A(C   8,N  15,B  11)          125.3562         0.381156   
     61. A(C   5,N  15,B  11)          126.3554         0.394659   
     62. A(C   5,N  15,C   8)          108.2883         0.424180   
     63. D(C   6,C   3,C   0,H  16)    179.9867         0.026205   
     64. D(I  12,C   3,C   0,C  14)    179.9595         0.026205   
     65. D(I  12,C   3,C   0,H  16)     -0.0541         0.026205   
     66. D(C   6,C   3,C   0,C  14)      0.0003         0.026205   
     67. D(C   5,C   4,C   2,C   8)      0.0029         0.026208   
     68. D(I  13,C   4,C   2,C   8)    179.9519         0.026208   
     69. D(I  13,C   4,C   2,H  18)     -0.0589         0.026208   
     70. D(C   5,C   4,C   2,H  18)    179.9921         0.026208   
     71. D(N  15,C   5,C   4,C   2)      0.0037         0.022209   
     72. D(H  19,C   5,C   4,C   2)   -179.9964         0.022209   
     73. D(H  19,C   5,C   4,I  13)      0.0531         0.022209   
     74. D(N  15,C   5,C   4,I  13)   -179.9469         0.022209   
     75. D(H  20,C   6,C   3,C   0)   -179.9902         0.022212   
     76. D(N   7,C   6,C   3,I  12)   -179.9538         0.022212   
     77. D(N   7,C   6,C   3,C   0)      0.0067         0.022212   
     78. D(H  20,C   6,C   3,I  12)      0.0493         0.022212   
     79. D(C  14,N   7,C   6,C   3)     -0.0111         0.036384   
     80. D(C  14,N   7,C   6,H  20)    179.9861         0.036384   
     81. D(B  11,N   7,C   6,H  20)      0.0773         0.036384   
     82. D(B  11,N   7,C   6,C   3)   -179.9199         0.036384   
     83. D(N  15,C   8,C   2,H  18)   -179.9979         0.021518   
     84. D(C   1,C   8,C   2,H  18)     -0.0036         0.021518   
     85. D(C   1,C   8,C   2,C   4)    179.9859         0.021518   
     86. D(N  15,C   8,C   1,H  17)   -179.9661         0.026211   
     87. D(N  15,C   8,C   2,C   4)     -0.0083         0.021518   
     88. D(N  15,C   8,C   1,C  14)      0.0297         0.026211   
     89. D(C   2,C   8,C   1,H  17)      0.0402         0.026211   
     90. D(C   2,C   8,C   1,C  14)   -179.9640         0.026211   
     91. D(F  10,B  11,N   7,C   6)     60.5818         0.010000   
     92. D(F   9,B  11,N   7,C  14)    119.2946         0.010000   
     93. D(N  15,B  11,N   7,C   6)    179.9158         0.010000   
     94. D(F  10,B  11,N   7,C  14)   -119.3121         0.010000   
     95. D(F   9,B  11,N   7,C   6)    -60.8115         0.010000   
     96. D(C   1,C  14,N   7,B  11)     -0.0586         0.023726   
     97. D(C   1,C  14,N   7,C   6)   -179.9686         0.023726   
     98. D(C   0,C  14,N   7,C   6)      0.0112         0.023726   
     99. D(N   7,C  14,C   1,H  17)   -179.9720         0.026211   
    100. D(N   7,C  14,C   1,C   8)      0.0322         0.026211   
    101. D(C   0,C  14,C   1,H  17)      0.0533         0.026211   
    102. D(C   0,C  14,C   1,C   8)   -179.9425         0.026211   
    103. D(N   7,C  14,C   0,H  16)   -179.9937         0.021522   
    104. D(C   0,C  14,N   7,B  11)    179.9212         0.023726   
    105. D(N   7,C  14,C   0,C   3)     -0.0069         0.021522   
    106. D(C   1,C  14,C   0,H  16)     -0.0166         0.021522   
    107. D(C   1,C  14,C   0,C   3)    179.9702         0.021522   
    108. D(C   8,N  15,B  11,F   9)   -119.2833         0.010000   
    109. D(C   8,N  15,B  11,N   7)      0.0414         0.010000   
    110. D(C   5,N  15,B  11,F  10)    -60.8018         0.010000   
    111. D(C   5,N  15,B  11,N   7)    179.9414         0.010000   
    112. D(B  11,N  15,C   8,C   2)    179.9259         0.023722   
    113. D(B  11,N  15,C   8,C   1)     -0.0690         0.023722   
    114. D(C   5,N  15,C   8,C   2)      0.0107         0.023722   
    115. D(C   5,N  15,C   8,C   1)   -179.9842         0.023722   
    116. D(C   5,N  15,B  11,F   9)     60.6166         0.010000   
    117. D(B  11,N  15,C   5,H  19)      0.0771         0.036399   
    118. D(B  11,N  15,C   5,C   4)   -179.9229         0.036399   
    119. D(C   8,N  15,C   5,H  19)    179.9912         0.036399   
    120. D(C   8,N  15,C   5,C   4)     -0.0089         0.036399   
    -----------------------------------------------------------------

Number of atoms                         .... 21
Number of degrees of freedom            .... 120


         *************************************************************
         *                GEOMETRY OPTIMIZATION CYCLE   1            *
         *************************************************************
---------------------------------
CARTESIAN COORDINATES (ANGSTROEM)
---------------------------------
  C     -4.802870    2.862419   -0.091621
  C     -2.254134    3.079959   -0.047421
  C      0.297235    2.895972   -0.003062
  C     -5.616748    1.730726   -0.104139
  C      1.125887    1.775109    0.012454
  C      0.296563    0.628143   -0.000952
  C     -4.772479    0.594782   -0.087296
  N     -3.490444    0.992598   -0.065115
  C     -1.034585    2.405102   -0.025786
  F     -2.246741   -0.731283    1.098432
  F     -2.211912   -0.734532   -1.182074
  B     -2.234299    0.066051   -0.043034
  I     -7.709578    1.667470   -0.139900
  I      3.219309    1.739402    0.047556
  C     -3.464751    2.389148   -0.067148
  N     -0.990548    1.008987   -0.023862
  H     -5.104581    3.907746   -0.098907
  H     -2.261345    4.171316   -0.049017
  H      0.585082    3.945207    0.001099
  H      0.587929   -0.421309    0.005170
  H     -5.049923   -0.458450   -0.090594

----------------------------
CARTESIAN COORDINATES (A.U.)
----------------------------
  NO LB      ZA    FRAG     MASS         X           Y           Z
   0 C     6.0000    0    12.011   -9.076108    5.409188   -0.173138
   1 C     6.0000    0    12.011   -4.259697    5.820278   -0.089613
   2 C     6.0000    0    12.011    0.561692    5.472594   -0.005787
   3 C     6.0000    0    12.011  -10.614115    3.270598   -0.196795
   4 C     6.0000    0    12.011    2.127618    3.354470    0.023535
   5 C     6.0000    0    12.011    0.560423    1.187019   -0.001800
   6 C     6.0000    0    12.011   -9.018679    1.123976   -0.164966
   7 N     7.0000    0    14.007   -6.595984    1.875738   -0.123050
   8 C     6.0000    0    12.011   -1.955083    4.544984   -0.048728
   9 F     9.0000    0    18.998   -4.245726   -1.381924    2.075735
  10 F     9.0000    0    18.998   -4.179908   -1.388065   -2.233796
  11 B     5.0000    0    10.810   -4.222214    0.124819   -0.081322
  12 I    25.0000*   0   126.900  -14.568992    3.151062   -0.264373
  13 I    25.0000*   0   126.900    6.083613    3.286993    0.089868
  14 C     6.0000    0    12.011   -6.547430    4.514835   -0.126891
  15 N     7.0000    0    14.007   -1.871865    1.906709   -0.045093
  16 H     1.0000    0     1.008   -9.646260    7.384570   -0.186906
  17 H     1.0000    0     1.008   -4.273323    7.882644   -0.092629
  18 H     1.0000    0     1.008    1.105646    7.455361    0.002077
  19 H     1.0000    0     1.008    1.111025   -0.796159    0.009770
  20 H     1.0000    0     1.008   -9.542971   -0.866345   -0.171199
* core charge reduced due to ECP

--------------------------------
INTERNAL COORDINATES (ANGSTROEM)
--------------------------------
 C      0   0   0     0.000000000000     0.00000000     0.00000000
 C      1   0   0     2.558383855226     0.00000000     0.00000000
 C      2   1   0     2.558378924186   170.99824322     0.00000000
 C      1   2   3     1.394017148721   130.60339537     0.07007799
 C      3   2   1     1.394001487254   130.60421632   359.95621376
 C      5   3   2     1.415446065976   107.64710984     0.00000000
 C      4   1   2     1.415429441306   107.64815076     0.00000000
 N      7   4   1     1.342520767438   109.38954525     0.00000000
 C      2   1   4     1.393987208552   146.16741586     0.05048081
 F      8   7   4     2.423303886622   106.69289278   150.62844847
 F     10   8   7     2.280773817297    61.88508498    99.05764555
 B     10   8   7     1.392422119690    37.21455707   132.77452832
 I      4   1   2     2.094091443977   127.45664116   179.97567863
 I      5   3   2     2.094021224242   127.45723260   179.95952078
 C      2   1   4     1.393987533454    24.82929798   359.96233543
 N      6   5   3     1.342469010109   109.39215554     0.00000000
 H      1   2   9     1.088022109502   101.22596880   180.07436950
 H      2   1  17     1.091381964056    94.49780911     0.03279892
 H      3   2  18     1.088011042094   101.21858791     0.03216762
 H      6   5   3     1.089165666491   128.60759800   180.00362316
 H      7   4   1     1.089166742087   128.61536171   180.00978029

---------------------------
INTERNAL COORDINATES (A.U.)
---------------------------
 C      0   0   0     0.000000000000     0.00000000     0.00000000
 C      1   0   0     4.834644831823     0.00000000     0.00000000
 C      2   1   0     4.834635513508   170.99824322     0.00000000
 C      1   2   3     2.634310637072   130.60339537     0.07007799
 C      3   2   1     2.634281041189   130.60421632   359.95621376
 C      5   3   2     2.674805422031   107.64710984     0.00000000
 C      4   1   2     2.674774005957   107.64815076     0.00000000
 N      7   4   1     2.536996579559   109.38954525     0.00000000
 C      2   1   4     2.634254058352   146.16741586     0.05048081
 F      8   7   4     4.579380684983   106.69289278   150.62844847
 F     10   8   7     4.310037888109    61.88508498    99.05764555
 B     10   8   7     2.631296469028    37.21455707   132.77452832
 I      4   1   2     3.957259328503   127.45664116   179.97567863
 I      5   3   2     3.957126632437   127.45723260   179.95952078
 C      2   1   4     2.634254672328    24.82929798   359.96233543
 N      6   5   3     2.536898772382   109.39215554     0.00000000
 H      1   2   9     2.056063814610   101.22596880   180.07436950
 H      2   1  17     2.062413019567    94.49780911     0.03279892
 H      3   2  18     2.056042900239   101.21858791     0.03216762
 H      6   5   3     2.058224824138   128.60759800   180.00362316
 H      7   4   1     2.058226856720   128.61536171   180.00978029

---------------------
BASIS SET INFORMATION
---------------------
There are 6 groups of distinct atoms

 Group   1 Type C   : 7s4p1d contracted to 3s2p1d pattern {511/31/1}
 Group   2 Type N   : 7s4p1d contracted to 3s2p1d pattern {511/31/1}
 Group   3 Type F   : 7s4p1d contracted to 3s2p1d pattern {511/31/1}
 Group   4 Type B   : 7s4p1d contracted to 3s2p1d pattern {511/31/1}
 Group   5 Type I   : 10s7p6d contracted to 4s4p2d pattern {6211/4111/51}
 Group   6 Type H   : 4s1p contracted to 2s1p pattern {31/1}

Atom   0C    basis set group =>   1
Atom   1C    basis set group =>   1
Atom   2C    basis set group =>   1
Atom   3C    basis set group =>   1
Atom   4C    basis set group =>   1
Atom   5C    basis set group =>   1
Atom   6C    basis set group =>   1
Atom   7N    basis set group =>   2
Atom   8C    basis set group =>   1
Atom   9F    basis set group =>   3
Atom  10F    basis set group =>   3
Atom  11B    basis set group =>   4
Atom  12I    basis set group =>   5
Atom  13I    basis set group =>   5
Atom  14C    basis set group =>   1
Atom  15N    basis set group =>   2
Atom  16H    basis set group =>   6
Atom  17H    basis set group =>   6
Atom  18H    basis set group =>   6
Atom  19H    basis set group =>   6
Atom  20H    basis set group =>   6
---------------------------------
AUXILIARY/J BASIS SET INFORMATION
---------------------------------
There are 6 groups of distinct atoms

 Group   1 Type C   : 12s5p4d2f1g contracted to 6s4p3d1f1g pattern {711111/2111/211/2/1}
 Group   2 Type N   : 12s5p4d2f1g contracted to 6s4p3d1f1g pattern {711111/2111/211/2/1}
 Group   3 Type F   : 12s5p4d2f1g contracted to 6s4p3d1f1g pattern {711111/2111/211/2/1}
 Group   4 Type B   : 12s5p4d2f1g contracted to 6s4p3d1f1g pattern {711111/2111/211/2/1}
 Group   5 Type I   : 11s5p5d3f1g contracted to 8s4p3d2f1g pattern {41111111/2111/311/21/1}
 Group   6 Type H   : 5s2p1d contracted to 3s1p1d pattern {311/2/1}

Atom   0C    basis set group =>   1
Atom   1C    basis set group =>   1
Atom   2C    basis set group =>   1
Atom   3C    basis set group =>   1
Atom   4C    basis set group =>   1
Atom   5C    basis set group =>   1
Atom   6C    basis set group =>   1
Atom   7N    basis set group =>   2
Atom   8C    basis set group =>   1
Atom   9F    basis set group =>   3
Atom  10F    basis set group =>   3
Atom  11B    basis set group =>   4
Atom  12I    basis set group =>   5
Atom  13I    basis set group =>   5
Atom  14C    basis set group =>   1
Atom  15N    basis set group =>   2
Atom  16H    basis set group =>   6
Atom  17H    basis set group =>   6
Atom  18H    basis set group =>   6
Atom  19H    basis set group =>   6
Atom  20H    basis set group =>   6
-------------------------
ECP PARAMETER INFORMATION
-------------------------

 Group 1, Type I  ECP Def2-ECP (replacing 28 core electrons, lmax=3)

Atom  12I    ECP group =>   1
Atom  13I    ECP group =>   1



           ************************************************************
           *        Program running with 4 parallel MPI-processes     *
           *              working on a common directory               *
           ************************************************************
------------------------------------------------------------------------------
                             ORCA STARTUP CALCULATIONS
                           -- RI-GTO INTEGRALS CHOSEN --
------------------------------------------------------------------------------
------------------------------------------------------------------------------
                   ___                                                        
                  /   \      - P O W E R E D   B Y -                         
                 /     \                                                     
                 |  |  |   _    _      __       _____    __    __             
                 |  |  |  | |  | |    /  \     |  _  \  |  |  /  |          
                  \  \/   | |  | |   /    \    | | | |  |  | /  /          
                 / \  \   | |__| |  /  /\  \   | |_| |  |  |/  /          
                |  |  |   |  __  | /  /__\  \  |    /   |      \           
                |  |  |   | |  | | |   __   |  |    \   |  |\   \          
                \     /   | |  | | |  |  |  |  | |\  \  |  | \   \       
                 \___/    |_|  |_| |__|  |__|  |_| \__\ |__|  \__/        
                                                                              
                      - O R C A' S   B I G   F R I E N D -                    
                                      &                                       
                       - I N T E G R A L  F E E D E R -                       
                                                                              
 v1 FN, 2020, v2 2021, v3 2022-2024                                           
------------------------------------------------------------------------------


----------------------
SHARK INTEGRAL PACKAGE
----------------------

Number of atoms                             ...     21
Number of basis functions                   ...    273
Number of shells                            ...    119
Maximum angular momentum                    ...      2
Integral batch strategy                     ... SHARK/LIBINT Hybrid
RI-J (if used) integral strategy            ... SPLIT-RIJ (Revised 2003 algorithm where possible)
Printlevel                                  ...      1
Contraction scheme used                     ... SEGMENTED contraction
Prescreening option                         ... SCHWARTZ
   Thresh                                   ... 2.500e-11
   Tcut                                     ... 2.500e-12
   Tpresel                                  ... 2.500e-12 
Coulomb Range Separation                    ... NOT USED
Exchange Range Separation                   ... NOT USED
Multipole approximations                    ... NOT USED
Finite Nucleus Model                        ... NOT USED
CABS basis                                  ... NOT available
Auxiliary Coulomb fitting basis             ... AVAILABLE
   # of basis functions in Aux-J            ...    857
   # of shells in Aux-J                     ...    271
   Maximum angular momentum in Aux-J        ...      4
Auxiliary J/K fitting basis                 ... NOT available
Auxiliary Correlation fitting basis         ... NOT available
Auxiliary 'external' fitting basis          ... NOT available

Checking pre-screening integrals            ... done (  0.0 sec) Dimension = 119
   => SHARK Basis and OBASIS are compatible. Storing Pre-screening
Shell pair information
Shell pair cut-off parameter TPreSel        ...   2.5e-12
Total number of shell pairs                 ...      7140
Shell pairs after pre-screening             ...      5691
Total number of primitive shell pairs       ...     28941
Primitive shell pairs kept                  ...     14889
          la=0 lb=0:   1463 shell pairs
          la=1 lb=0:   2021 shell pairs
          la=1 lb=1:    721 shell pairs
          la=2 lb=0:    796 shell pairs
          la=2 lb=1:    574 shell pairs
          la=2 lb=2:    116 shell pairs

Checking whether 4 symmetric matrices of dimension 273 fit in memory
:Max Core in MB      =   4096.00
 MB in use           =     10.84
 MB left             =   4085.16
 MB needed           =      1.14
 Data fit in memory  = YES
Calculating RI/J V-Matrix + Cholesky decomp.... done (  0.0 sec)
Calculating Nuclear repulsion               ... done (  0.0 sec) ENN=   1382.168490295147 Eh

Diagonalization of the overlap matrix:
Smallest eigenvalue                        ... 5.590e-04
Time for diagonalization                   ...    0.007 sec
Threshold for overlap eigenvalues          ... 1.000e-07
Number of eigenvalues below threshold      ... 0
Time for construction of square roots      ...    0.003 sec
Total time needed                          ...    0.011 sec

-------------------
DFT GRID GENERATION
-------------------

General Integration Accuracy     IntAcc      ... 4.388
Radial Grid Type                 RadialGrid  ... OptM3 with GC (2021)
Angular Grid (max. ang.)         AngularGrid ... 4 (Lebedev-302)
Angular grid pruning method      GridPruning ... 4 (adaptive)
Weight generation scheme         WeightScheme... mBecke (2022)
Basis function cutoff            BFCut       ... 1.0000e-11
Integration weight cutoff        WCut        ... 1.0000e-14
Partially contracted basis set               ... off
Rotationally invariant grid construction     ... off
Angular grids for H and He will be reduced by one unit

Total number of grid points                  ...   122587
Total number of batches                      ...     1925
Average number of points per batch           ...       63
Average number of grid points per atom       ...     5837

--------------------
COSX GRID GENERATION
--------------------

GRIDX 1
-------
General Integration Accuracy     IntAcc      ... 3.816
Radial Grid Type                 RadialGrid  ... OptM3 with GC (2021)
Angular Grid (max. ang.)         AngularGrid ... 1 (Lebedev-50)
Angular grid pruning method      GridPruning ... 4 (adaptive)
Weight generation scheme         WeightScheme... mBecke (2022)
Basis function cutoff            BFCut       ... 1.0000e-11
Integration weight cutoff        WCut        ... 1.0000e-14
Partially contracted basis set               ... on
Rotationally invariant grid construction     ... off
Angular grids for H and He will be reduced by one unit

Total number of grid points                  ...    24412
Total number of batches                      ...      202
Average number of points per batch           ...      120
Average number of grid points per atom       ...     1162
UseSFitting                                  ... on

GRIDX 2
-------
General Integration Accuracy     IntAcc      ... 4.020
Radial Grid Type                 RadialGrid  ... OptM3 with GC (2021)
Angular Grid (max. ang.)         AngularGrid ... 2 (Lebedev-110)
Angular grid pruning method      GridPruning ... 4 (adaptive)
Weight generation scheme         WeightScheme... mBecke (2022)
Basis function cutoff            BFCut       ... 1.0000e-11
Integration weight cutoff        WCut        ... 1.0000e-14
Partially contracted basis set               ... on
Rotationally invariant grid construction     ... off
Angular grids for H and He will be reduced by one unit

Total number of grid points                  ...    40366
Total number of batches                      ...      325
Average number of points per batch           ...      124
Average number of grid points per atom       ...     1922
UseSFitting                                  ... on

GRIDX 3
-------
General Integration Accuracy     IntAcc      ... 4.338
Radial Grid Type                 RadialGrid  ... OptM3 with GC (2021)
Angular Grid (max. ang.)         AngularGrid ... 3 (Lebedev-194)
Angular grid pruning method      GridPruning ... 4 (adaptive)
Weight generation scheme         WeightScheme... mBecke (2022)
Basis function cutoff            BFCut       ... 1.0000e-11
Integration weight cutoff        WCut        ... 1.0000e-14
Partially contracted basis set               ... on
Rotationally invariant grid construction     ... off
Angular grids for H and He will be reduced by one unit

Total number of grid points                  ...    74782
Total number of batches                      ...      594
Average number of points per batch           ...      125
Average number of grid points per atom       ...     3561
UseSFitting                                  ... on
Grids setup in   2.5 sec
Initializing property integral containers    ... done (  0.0 sec)

SHARK setup successfully completed in   2.9 seconds

Maximum memory used throughout the entire STARTUP-calculation: 37.7 MB


           ************************************************************
           *        Program running with 4 parallel MPI-processes     *
           *              working on a common directory               *
           ************************************************************
-------------------------------------------------------------------------------
                                 ORCA GUESS
                   Start orbitals & Density for SCF / CASSCF
-------------------------------------------------------------------------------

------------
SCF SETTINGS
------------
Hamiltonian:
 Density Functional     Method          .... DFT(GTOs)
 Exchange Functional    Exchange        .... B88
   X-Alpha parameter    XAlpha          ....  0.666667
   Becke's b parameter  XBeta           ....  0.004200
 Correlation Functional Correlation     .... LYP
 LDA part of GGA corr.  LDAOpt          .... VWN-5
 Gradients option       PostSCFGGA      .... off
 Hybrid DFT is turned on
   Fraction HF Exchange ScalHFX         ....  0.200000
   Scaling of DF-GGA-X  ScalDFX         ....  0.720000
   Scaling of DF-GGA-C  ScalDFC         ....  0.810000
   Scaling of DF-LDA-C  ScalLDAC        ....  1.000000
   Perturbative correction              ....  0.000000
   NL short-range parameter             ....  4.800000
 RI-approximation to the Coulomb term is turned on
   Number of AuxJ basis functions       .... 857
   RIJ-COSX (HFX calculated with COS-X)).... on


General Settings:
 Integral files         IntName         .... Iodo_T1
 Hartree-Fock type      HFTyp           .... UHF
 Total Charge           Charge          ....    0
 Multiplicity           Mult            ....    3
 Number of Electrons    NEL             ....  146
 Basis Dimension        Dim             ....  273
 Nuclear Repulsion      ENuc            ....   1382.1684902951 Eh

Convergence Acceleration:
 AO-DIIS                CNVDIIS         .... off
 MO-DIIS                CNVKDIIS        .... off
 Trust-Rad. Augm. Hess. CNVTRAH         .... on
   Max. Number of Micro iterations      ....    24
   Max. Number of Macro iterations      ....   500
   Number of Davidson start vectors     ....     2
   Converg. threshold    (grad. norm)   ....   1.000e-05
   Grad. Scal. Fac. for Micro threshold ....   0.100
   Minimum threshold for Micro iter.    ....   1.000e-02
   NR start threshold (gradient norm)   ....   1.000e-04
   Initial trust radius                 ....   0.400
   Minimum AH scaling param. (alpha)    ....   1.000
   Maximum AH scaling param. (alpha)    .... 1000.000
   Quad. conv. algorithm                .... NR
   White noise on init. David. guess    .... on
   Maximum white noise                  ....   0.010
   Pseudo random numbers                .... off
   Inactive MOs                         .... canonical
   Orbital update algorithm             .... Taylor
   Preconditioner                       .... Diag
   Full preconditioner red. dimension   ....   250
 SOSCF                 CNVSOSCF           .... off
 Level Shifting         CNVShift        .... off
 Zerner damping         CNVZerner       .... off
 Static damping         CNVDamp         .... off

SCF Procedure:
 Maximum # iterations   MaxIter         ....   500
 SCF integral mode      SCFMode         .... Direct
   Integral package                     .... SHARK and LIBINT hybrid scheme
 Reset frequency        DirectResetFreq ....    20
 Integral Threshold     Thresh          ....  2.500e-11 Eh
 Primitive CutOff       TCut            ....  2.500e-12 Eh

Convergence Tolerance:
 Convergence Check Mode ConvCheckMode   .... Total+1el-Energy
 Convergence forced     ConvForced      .... 0
 Energy Change          TolE            ....  1.000e-08 Eh
 1-El. energy change                    ....  1.000e-05 Eh

------------------------------
INITIAL GUESS: MODEL POTENTIAL
------------------------------
Loading Hartree-Fock densities                     ... done
Atomic calculation to generate a density for atom 12 (I  with ECP)
  Multiplicity assumed   :    2
  Atomic configuration   : 1s2 2s2 2p6 3s2 3p6 4s2 3d10 4p6 5s2 4d10 5p5 
  Number of open shells  : 1
  Command: /home/corine-kengne/orca_6_1_0/orca Iodo_T1_atom53.inp "" > Iodo_T1_atom53.out
Returned from the atomic calculation with res=0
Calculating cut-offs                               ... done
Initializing the effective Hamiltonian             ... done
Setting up the integral package (SHARK)            ... done
Starting the Coulomb interaction                   ... done (   0.1 sec)
Making the grid                                    ... done (   0.4 sec)
Mapping shells                                     ... done
Starting the XC term evaluation                    ... done (   0.1 sec)
  promolecular density results
     # of electrons  =    201.989944111
     EX              =   -432.729727329
     EC              =     -8.767492201
     EX+EC           =   -441.497219530
Transforming the Hamiltonian                       ... done (   0.0 sec)
Diagonalizing the Hamiltonian                      ... done (   0.0 sec)
Back transforming the eigenvectors                 ... done (   0.0 sec)
Now organizing SCF variables                       ... done
                      ------------------
                      INITIAL GUESS DONE (   1.9 sec)
                      ------------------
             **** ENERGY FILE WAS UPDATED (Iodo_T1.en.tmp) ****
Finished Guess after   2.4 sec
Maximum memory used throughout the entire GUESS-calculation: 15.6 MB


           ************************************************************
           *        Program running with 4 parallel MPI-processes     *
           *              working on a common directory               *
           ************************************************************

-------------------------------------------------------------------------------------------
                                      ORCA LEAN-SCF
                              memory conserving SCF solver
-------------------------------------------------------------------------------------------

--------------------
CPCM SOLVATION MODEL
--------------------
CPCM parameters:
  Epsilon                                         ...      78.3550
  Refrac                                          ...       1.3328
  Rsolv                                           ...       1.3000
  Surface type                                    ... GAUSSIAN VDW
  Discretization scheme                           ... Constant charge density
    Threshold for H atoms                         ...       5.0000 (charges/Ang^2)
    Threshold for non-H atoms                     ...       5.0000 (charges/Ang^2)
  Epsilon function type                           ...         CPCM
Solvent:                                          ... WATER
SMD-CDS solvent descriptors:
  Soln                                            ...       1.3328
  Soln25                                          ...       1.3323
  Sola                                            ...       0.0000
  Solb                                            ...       0.0000
  Solg                                            ...       0.0000
  Solc                                            ...       0.0000
  Solh                                            ...       0.0000
Radii:
  Scheme                                          ... Element-dependent radii
  Radius for C  used is    3.4960 Bohr (=   1.8500 Ang.)
  Radius for N  used is    3.5716 Bohr (=   1.8900 Ang.)
  Radius for F  used is    3.2692 Bohr (=   1.7300 Ang.)
  Radius for B  used is    3.6283 Bohr (=   1.9200 Ang.)
  Radius for I  used is    3.7417 Bohr (=   1.9800 Ang.)
  Radius for H  used is    2.2677 Bohr (=   1.2000 Ang.)
Calculating surface                               ...        done! (  0.0s)
Cavity surface points                             ...         1845
Cavity Volume                                     ...    1570.9242
Cavity Surface-area                               ...     911.3042
Calculating surface distance matrix               ...        done! (  0.1s)
Performing Cholesky decomposition & store         ...        done! (  0.1s)
Overall time for CPCM initialization              ...                 0.1s

 --------------------------------------------------------------------------------------------
   Iter.        energy            ||Error||_2        Shift      TRadius  Mac/Mic        Rej.
 --------------------------------------------------------------------------------------------
    0      -1274.305113388082     1.508239e+00                     0.400 (TRAH MAcro)   No
WARNING: 3 diagonal Hessian elements are negative!
WARNING : negative HOMO - LUMO gap : (op =  beta) -0.059389
WARNING : negative HOMO - LUMO gap : (op =  beta) -0.059389
    0     dE    -3.275890e-01     2.300945e-01    -2.9379e-01      0.339 (TRAH MIcro)
    0     dE    -3.447883e-01     5.558105e-02    -3.0332e-01      0.370 (TRAH MIcro)
    0     dE    -3.469688e-01     9.977081e-03    -3.0416e-01      0.375 (TRAH MIcro)
    1      -1274.648786540354     1.037220e-01                     0.480 (TRAH MAcro)   No
    1     dE    -1.746743e-02     6.844564e-02    -1.6375e-02      0.258 (TRAH MIcro)
    1     dE    -2.768988e-02     3.448653e-02    -2.6410e-02      0.480 (TRAH MIcro)
    1     dE    -2.832265e-02     1.239779e-02    -3.2972e-02      0.480 (TRAH MIcro)
    1     dE    -2.845744e-02     5.746785e-03    -3.4483e-02      0.480 (TRAH MIcro)
    2      -1274.673299547338     1.742159e-02                     0.576 (TRAH MAcro)   No
    2     dE    -5.090351e-04     1.309093e-02    -5.0790e-04      0.047 (TRAH MIcro)
    2     dE    -8.166722e-04     6.548918e-03    -8.0834e-04      0.101 (TRAH MIcro)
    2     dE    -8.685516e-04     4.056973e-03    -8.5772e-04      0.112 (TRAH MIcro)
    2     dE    -8.936097e-04     2.576150e-03    -8.8051e-04      0.122 (TRAH MIcro)
    2     dE    -8.984147e-04     1.283332e-03    -8.8479e-04      0.124 (TRAH MIcro)
    3      -1274.674200694082     1.988807e-03                     0.691 (TRAH MAcro)   No
    3     dE    -2.797117e-06     8.404940e-04    -2.7971e-06      0.002 (TRAH MIcro)
    3     dE    -3.927237e-06     5.749844e-04    -3.9272e-06      0.004 (TRAH MIcro)
    3     dE    -4.171701e-06     3.612965e-04    -4.1716e-06      0.004 (TRAH MIcro)
    3     dE    -4.282031e-06     1.385897e-04    -4.2819e-06      0.005 (TRAH MIcro)
    4      -1274.674204973476     1.382629e-04                     0.829 (TRAH MAcro)   No
    4     dE    -1.452433e-08     7.490641e-05    -1.4524e-08      0.000 (TRAH MIcro)
    4     dE    -2.083868e-08     4.955816e-05    -2.0839e-08      0.000 (TRAH MIcro)
    4     dE    -2.296263e-08     2.956802e-05    -2.2963e-08      0.001 (TRAH MIcro)
    4     dE    -2.349001e-08     1.305240e-05    -2.3490e-08      0.001 (TRAH MIcro)
    5      -1274.674204996870     1.307776e-05                           (NR   MAcro)
    5     dE    -1.318002e-10     6.722873e-06                           (NR   MIcro)
    5     dE    -2.009332e-10     4.458709e-06                           (NR   MIcro)
    5     dE    -2.186133e-10     2.352872e-06                           (NR   MIcro)
    5     dE    -2.237905e-10     1.387167e-06                           (NR   MIcro)
    5     dE    -2.260269e-10     6.834529e-07                           (NR   MIcro)
    6      -1274.674204997091     6.836078e-07                           (NR   MAcro)

               *****************************************************
               *                     SUCCESS                       *
               *           SCF CONVERGED AFTER  32 CYCLES          *
               *****************************************************

Recomputing exchange energy using gridx3       ... done (    5.900 sec)
Old exchange energy                            :    -25.607830159 Eh
New exchange energy                            :    -25.607820823 Eh
Exchange energy change after final integration :      0.000009336 Eh
Total energy after final integration           :  -1274.674195662 Eh

SMD CDS free energy correction energy :                 5.26250     Kcal/mol
Total Energy after SMD CDS correction =             -1274.665809340 Eh
Warning: op=1 Small HOMO/LUMO gap (   0.064) - skipping pre-diagonalization
         Will do a full diagonalization
             **** ENERGY FILE WAS UPDATED (Iodo_T1.en.tmp) ****

----------------
TOTAL SCF ENERGY
----------------

Total Energy       :      -1274.66580934034732 Eh          -34685.42004 eV

Components:
Nuclear Repulsion  :       1382.16849029514651 Eh           37610.71671 eV
Electronic Energy  :      -2655.87561833994596 Eh          -72270.04971 eV
One Electron Energy:      -4714.85491309983263 Eh         -128297.72472 eV
Two Electron Energy:       2058.97929475988667 Eh           56027.67500 eV
CPCM Dielectric    :         -0.02439734274415 Eh              -0.66389 eV
SMD CDS (Gcds)     :          0.00838632117212 Eh               0.22820 eV

Virial components:
Potential Energy   :      -2175.32298271069794 Eh          -59193.54770 eV
Kinetic Energy     :        900.65717337035039 Eh           24508.12766 eV
Virial Ratio       :          2.41526192987551

DFT components:
N(Alpha)           :       73.999991306468 electrons
N(Beta)            :       71.999984237927 electrons
N(Total)           :      145.999975544396 electrons
E(X)               :     -101.843384063039 Eh       
E(C)               :       -6.259220382991 Eh       
E(XC)              :     -108.102604446030 Eh       

CPCM Solvation Model Properties:
Surface-charge          :         -0.08360806049262
Corrected charge        :         -0.00000000000000
Outlying charge corr.   :          0.00041812723309 Eh               0.01138 eV
Free-energy (cav+disp)  :          0.00838632117212 Eh               0.22820 eV

---------------
SCF CONVERGENCE
---------------

  Last Energy change         ...   -2.2146e-10  Tolerance :   1.0000e-08
  Last Orbital Gradient      ...    6.8361e-07  Tolerance :   1.0000e-05
  Last Orbital Rotation      ...    4.2244e-05


----------------------
UHF SPIN CONTAMINATION
----------------------

Warning: in a DFT calculation there is little theoretical justification to 
         calculate <S**2> as in Hartree-Fock theory. We will do it anyways
         but you should keep in mind that the values have only limited relevance

Expectation value of <S**2>     :     2.009184
Ideal value S*(S+1) for S=1.0   :     2.000000
Deviation                       :     0.009184

----------------
ORBITAL ENERGIES
----------------
                 SPIN UP ORBITALS
  NO   OCC          E(Eh)            E(eV) 
   0   1.0000     -24.640679      -670.5070 
   1   1.0000     -24.640598      -670.5048 
   2   1.0000     -14.358726      -390.7208 
   3   1.0000     -14.358693      -390.7199 
   4   1.0000     -10.251253      -278.9508 
   5   1.0000     -10.251152      -278.9480 
   6   1.0000     -10.245381      -278.7910 
   7   1.0000     -10.245352      -278.7902 
   8   1.0000     -10.235741      -278.5287 
   9   1.0000     -10.235740      -278.5286 
  10   1.0000     -10.195983      -277.4468 
  11   1.0000     -10.195977      -277.4466 
  12   1.0000     -10.192518      -277.3525 
  13   1.0000      -6.847631      -186.3335 
  14   1.0000      -6.847631      -186.3335 
  15   1.0000      -6.837980      -186.0709 
  16   1.0000      -4.876353      -132.6923 
  17   1.0000      -4.876352      -132.6923 
  18   1.0000      -4.859786      -132.2415 
  19   1.0000      -4.859786      -132.2415 
  20   1.0000      -4.857844      -132.1887 
  21   1.0000      -4.857843      -132.1886 
  22   1.0000      -1.923451       -52.3398 
  23   1.0000      -1.923451       -52.3398 
  24   1.0000      -1.918886       -52.2155 
  25   1.0000      -1.918886       -52.2155 
  26   1.0000      -1.917390       -52.1748 
  27   1.0000      -1.917388       -52.1748 
  28   1.0000      -1.903809       -51.8053 
  29   1.0000      -1.903809       -51.8053 
  30   1.0000      -1.903774       -51.8043 
  31   1.0000      -1.903774       -51.8043 
  32   1.0000      -1.152364       -31.3574 
  33   1.0000      -1.119229       -30.4558 
  34   1.0000      -0.996097       -27.1052 
  35   1.0000      -0.980700       -26.6862 
  36   1.0000      -0.814614       -22.1668 
  37   1.0000      -0.798844       -21.7377 
  38   1.0000      -0.789984       -21.4966 
  39   1.0000      -0.745938       -20.2980 
  40   1.0000      -0.709422       -19.3044 
  41   1.0000      -0.688022       -18.7220 
  42   1.0000      -0.667326       -18.1589 
  43   1.0000      -0.594096       -16.1662 
  44   1.0000      -0.584632       -15.9086 
  45   1.0000      -0.581442       -15.8219 
  46   1.0000      -0.578072       -15.7301 
  47   1.0000      -0.513647       -13.9770 
  48   1.0000      -0.507109       -13.7991 
  49   1.0000      -0.504434       -13.7264 
  50   1.0000      -0.489466       -13.3190 
  51   1.0000      -0.460971       -12.5437 
  52   1.0000      -0.452589       -12.3156 
  53   1.0000      -0.444094       -12.0844 
  54   1.0000      -0.440804       -11.9949 
  55   1.0000      -0.435417       -11.8483 
  56   1.0000      -0.417712       -11.3665 
  57   1.0000      -0.409997       -11.1566 
  58   1.0000      -0.407247       -11.0818 
  59   1.0000      -0.381134       -10.3712 
  60   1.0000      -0.377310       -10.2671 
  61   1.0000      -0.376055       -10.2330 
  62   1.0000      -0.365783        -9.9535 
  63   1.0000      -0.365603        -9.9486 
  64   1.0000      -0.350739        -9.5441 
  65   1.0000      -0.334927        -9.1138 
  66   1.0000      -0.303722        -8.2647 
  67   1.0000      -0.300842        -8.1863 
  68   1.0000      -0.264550        -7.1988 
  69   1.0000      -0.263602        -7.1730 
  70   1.0000      -0.263552        -7.1716 
  71   1.0000      -0.248821        -6.7708 
  72   1.0000      -0.233790        -6.3617 
  73   1.0000      -0.159543        -4.3414 
  74   0.0000       0.225189         6.1277 
  75   0.0000       0.229857         6.2547 
  76   0.0000       0.250860         6.8262 
  77   0.0000       0.264102         7.1866 
  78   0.0000       0.288305         7.8452 
  79   0.0000       0.338740         9.2176 
  80   0.0000       0.345419         9.3993 
  81   0.0000       0.357376         9.7247 
  82   0.0000       0.362611         9.8671 
  83   0.0000       0.379400        10.3240 
  84   0.0000       0.393763        10.7148 

                 SPIN DOWN ORBITALS
  NO   OCC          E(Eh)            E(eV) 
   0   1.0000     -24.640583      -670.5043 
   1   1.0000     -24.640502      -670.5021 
   2   1.0000     -14.358406      -390.7121 
   3   1.0000     -14.358373      -390.7112 
   4   1.0000     -10.248623      -278.8792 
   5   1.0000     -10.248518      -278.8764 
   6   1.0000     -10.239228      -278.6236 
   7   1.0000     -10.239201      -278.6228 
   8   1.0000     -10.234807      -278.5033 
   9   1.0000     -10.234806      -278.5032 
  10   1.0000     -10.193561      -277.3809 
  11   1.0000     -10.193556      -277.3808 
  12   1.0000     -10.186824      -277.1976 
  13   1.0000      -6.847377      -186.3266 
  14   1.0000      -6.847376      -186.3266 
  15   1.0000      -6.838011      -186.0717 
  16   1.0000      -4.876288      -132.6905 
  17   1.0000      -4.876287      -132.6905 
  18   1.0000      -4.859190      -132.2253 
  19   1.0000      -4.859190      -132.2253 
  20   1.0000      -4.857747      -132.1860 
  21   1.0000      -4.857746      -132.1860 
  22   1.0000      -1.923284       -52.3352 
  23   1.0000      -1.923284       -52.3352 
  24   1.0000      -1.918495       -52.2049 
  25   1.0000      -1.918495       -52.2049 
  26   1.0000      -1.917348       -52.1737 
  27   1.0000      -1.917346       -52.1736 
  28   1.0000      -1.903389       -51.7938 
  29   1.0000      -1.903388       -51.7938 
  30   1.0000      -1.903370       -51.7933 
  31   1.0000      -1.903370       -51.7933 
  32   1.0000      -1.152131       -31.3511 
  33   1.0000      -1.119000       -30.4495 
  34   1.0000      -0.989998       -26.9392 
  35   1.0000      -0.974452       -26.5162 
  36   1.0000      -0.803843       -21.8737 
  37   1.0000      -0.791772       -21.5452 
  38   1.0000      -0.785609       -21.3775 
  39   1.0000      -0.735245       -20.0070 
  40   1.0000      -0.706578       -19.2270 
  41   1.0000      -0.682423       -18.5697 
  42   1.0000      -0.653668       -17.7872 
  43   1.0000      -0.590847       -16.0778 
  44   1.0000      -0.578987       -15.7550 
  45   1.0000      -0.577197       -15.7063 
  46   1.0000      -0.571335       -15.5468 
  47   1.0000      -0.510506       -13.8916 
  48   1.0000      -0.505940       -13.7673 
  49   1.0000      -0.497532       -13.5385 
  50   1.0000      -0.484638       -13.1877 
  51   1.0000      -0.458429       -12.4745 
  52   1.0000      -0.449817       -12.2401 
  53   1.0000      -0.431929       -11.7534 
  54   1.0000      -0.426670       -11.6103 
  55   1.0000      -0.421364       -11.4659 
  56   1.0000      -0.414999       -11.2927 
  57   1.0000      -0.406814       -11.0700 
  58   1.0000      -0.404373       -11.0036 
  59   1.0000      -0.377439       -10.2706 
  60   1.0000      -0.375223       -10.2103 
  61   1.0000      -0.374028       -10.1778 
  62   1.0000      -0.364402        -9.9159 
  63   1.0000      -0.363054        -9.8792 
  64   1.0000      -0.349678        -9.5152 
  65   1.0000      -0.307606        -8.3704 
  66   1.0000      -0.296141        -8.0584 
  67   1.0000      -0.278479        -7.5778 
  68   1.0000      -0.263634        -7.1738 
  69   1.0000      -0.262635        -7.1467 
  70   1.0000      -0.241691        -6.5767 
  71   1.0000      -0.235055        -6.3962 
  72   0.0000       0.078761         2.1432 
  73   0.0000       0.170153         4.6301 
  74   0.0000       0.227033         6.1779 
  75   0.0000       0.231585         6.3017 
  76   0.0000       0.281451         7.6587 
  77   0.0000       0.290956         7.9173 
  78   0.0000       0.312285         8.4977 
  79   0.0000       0.347457         9.4548 
  80   0.0000       0.360326         9.8050 
  81   0.0000       0.365829         9.9547 
  82   0.0000       0.368011        10.0141 
*Only the first 10 virtual orbitals were printed.

                    ********************************
                    * MULLIKEN POPULATION ANALYSIS *
                    ********************************

--------------------------------------------
MULLIKEN ATOMIC CHARGES AND SPIN POPULATIONS
--------------------------------------------
   0 C :   -0.051714    0.164023
   1 C :   -0.075636    0.402550
   2 C :   -0.051759    0.164019
   3 C :   -0.119842    0.047017
   4 C :   -0.119785    0.047018
   5 C :    0.130886    0.411869
   6 C :    0.130876    0.411822
   7 N :   -0.140730   -0.000581
   8 C :    0.148577    0.156644
   9 F :   -0.222164    0.001907
  10 F :   -0.222176    0.001907
  11 B :    0.133662   -0.000617
  12 I :    0.139949    0.056035
  13 I :    0.139973    0.056056
  14 C :    0.148429    0.156627
  15 N :   -0.140598   -0.000580
  16 H :    0.020259   -0.008816
  17 H :    0.010736   -0.019697
  18 H :    0.020248   -0.008816
  19 H :    0.060416   -0.019195
  20 H :    0.060391   -0.019192
Sum of atomic charges         :   -0.0000000
Sum of atomic spin populations:    2.0000000

-----------------------------------------------------
MULLIKEN REDUCED ORBITAL CHARGES AND SPIN POPULATIONS
-----------------------------------------------------
CHARGE
  0 C s       :     3.302027  s :     3.302027
      pz      :     1.057382  p :     2.716674
      px      :     0.855883
      py      :     0.803409
      dz2     :     0.002779  d :     0.033014
      dxz     :     0.004597
      dyz     :     0.004269
      dx2y2   :     0.011068
      dxy     :     0.010301

  1 C s       :     3.264801  s :     3.264801
      pz      :     1.106031  p :     2.780372
      px      :     0.865945
      py      :     0.808396
      dz2     :     0.002748  d :     0.030462
      dxz     :     0.005245
      dyz     :     0.002553
      dx2y2   :     0.009373
      dxy     :     0.010543

  2 C s       :     3.302074  s :     3.302074
      pz      :     1.057360  p :     2.716671
      px      :     0.856403
      py      :     0.802908
      dz2     :     0.002779  d :     0.033014
      dxz     :     0.004620
      dyz     :     0.004245
      dx2y2   :     0.010970
      dxy     :     0.010398

  3 C s       :     3.085786  s :     3.085786
      pz      :     1.056442  p :     2.993680
      px      :     0.914876
      py      :     1.022362
      dz2     :     0.002932  d :     0.040375
      dxz     :     0.005728
      dyz     :     0.007259
      dx2y2   :     0.010602
      dxy     :     0.013854

  4 C s       :     3.085800  s :     3.085800
      pz      :     1.056423  p :     2.993609
      px      :     0.915078
      py      :     1.022107
      dz2     :     0.002932  d :     0.040376
      dxz     :     0.005753
      dyz     :     0.007235
      dx2y2   :     0.010670
      dxy     :     0.013787

  5 C s       :     3.206719  s :     3.206719
      pz      :     0.914799  p :     2.608957
      px      :     0.815007
      py      :     0.879151
      dz2     :     0.003974  d :     0.053437
      dxz     :     0.012239
      dyz     :     0.004071
      dx2y2   :     0.017194
      dxy     :     0.015959

  6 C s       :     3.206729  s :     3.206729
      pz      :     0.914817  p :     2.608961
      px      :     0.815508
      py      :     0.878636
      dz2     :     0.003975  d :     0.053434
      dxz     :     0.012244
      dyz     :     0.004064
      dx2y2   :     0.017144
      dxy     :     0.016008

  7 N s       :     3.407076  s :     3.407076
      pz      :     1.462317  p :     3.709048
      px      :     1.129053
      py      :     1.117678
      dz2     :     0.002150  d :     0.024607
      dxz     :     0.004009
      dyz     :     0.003614
      dx2y2   :     0.008866
      dxy     :     0.005968

  8 C s       :     3.075778  s :     3.075778
      pz      :     0.921548  p :     2.711810
      px      :     0.900246
      py      :     0.890017
      dz2     :     0.004437  d :     0.063835
      dxz     :     0.010891
      dyz     :     0.011392
      dx2y2   :     0.021578
      dxy     :     0.015538

  9 F s       :     3.857095  s :     3.857095
      pz      :     1.690432  p :     5.360317
      px      :     1.885872
      py      :     1.784013
      dz2     :     0.001367  d :     0.004753
      dxz     :     0.000677
      dyz     :     0.001897
      dx2y2   :     0.000436
      dxy     :     0.000377

 10 F s       :     3.857093  s :     3.857093
      pz      :     1.691243  p :     5.360331
      px      :     1.885838
      py      :     1.783250
      dz2     :     0.001358  d :     0.004753
      dxz     :     0.000674
      dyz     :     0.001900
      dx2y2   :     0.000440
      dxy     :     0.000380

 11 B s       :     2.676129  s :     2.676129
      pz      :     0.589250  p :     1.936000
      px      :     0.697233
      py      :     0.649517
      dz2     :     0.063025  d :     0.254209
      dxz     :     0.034540
      dyz     :     0.071794
      dx2y2   :     0.024970
      dxy     :     0.059880

 12 I s       :     3.967752  s :     3.967752
      pz      :     3.899981  p :    10.843533
      px      :     2.971903
      py      :     3.971648
      dz2     :     2.007493  d :    10.048766
      dxz     :     2.011849
      dyz     :     2.000215
      dx2y2   :     2.023507
      dxy     :     2.005702

 13 I s       :     3.967751  s :     3.967751
      pz      :     3.899962  p :    10.843503
      px      :     2.971338
      py      :     3.972203
      dz2     :     2.007493  d :    10.048772
      dxz     :     2.011857
      dyz     :     2.000209
      dx2y2   :     2.023553
      dxy     :     2.005661

 14 C s       :     3.075873  s :     3.075873
      pz      :     0.921552  p :     2.711860
      px      :     0.900643
      py      :     0.889665
      dz2     :     0.004437  d :     0.063838
      dxz     :     0.010863
      dyz     :     0.011420
      dx2y2   :     0.021599
      dxy     :     0.015519

 15 N s       :     3.406959  s :     3.406959
      pz      :     1.462359  p :     3.709031
      px      :     1.127775
      py      :     1.118897
      dz2     :     0.002151  d :     0.024608
      dxz     :     0.004033
      dyz     :     0.003589
      dx2y2   :     0.008901
      dxy     :     0.005934

 16 H s       :     0.955669  s :     0.955669
      pz      :     0.005041  p :     0.024071
      px      :     0.004031
      py      :     0.015000

 17 H s       :     0.965000  s :     0.965000
      pz      :     0.005325  p :     0.024264
      px      :     0.003188
      py      :     0.015751

 18 H s       :     0.955680  s :     0.955680
      pz      :     0.005040  p :     0.024072
      px      :     0.003937
      py      :     0.015095

 19 H s       :     0.916316  s :     0.916316
      pz      :     0.004363  p :     0.023268
      px      :     0.003245
      py      :     0.015660

 20 H s       :     0.916341  s :     0.916341
      pz      :     0.004362  p :     0.023268
      px      :     0.003147
      py      :     0.015759


SPIN
  0 C s       :     0.017796  s :     0.017796
      pz      :     0.148835  p :     0.145499
      px      :    -0.002582
      py      :    -0.000754
      dz2     :    -0.000454  d :     0.000727
      dxz     :     0.001430
      dyz     :    -0.000196
      dx2y2   :    -0.000002
      dxy     :    -0.000050

  1 C s       :     0.057151  s :     0.057151
      pz      :     0.336123  p :     0.343767
      px      :    -0.000450
      py      :     0.008095
      dz2     :    -0.001016  d :     0.001632
      dxz     :     0.002785
      dyz     :    -0.000186
      dx2y2   :     0.000062
      dxy     :    -0.000013

  2 C s       :     0.017796  s :     0.017796
      pz      :     0.148834  p :     0.145495
      px      :    -0.002558
      py      :    -0.000781
      dz2     :    -0.000454  d :     0.000727
      dxz     :     0.001433
      dyz     :    -0.000199
      dx2y2   :    -0.000003
      dxy     :    -0.000048

  3 C s       :    -0.001459  s :    -0.001459
      pz      :     0.063246  p :     0.044866
      px      :    -0.003708
      py      :    -0.014672
      dz2     :    -0.000236  d :     0.003610
      dxz     :     0.000239
      dyz     :     0.003559
      dx2y2   :    -0.000018
      dxy     :     0.000065

  4 C s       :    -0.001460  s :    -0.001460
      pz      :     0.063251  p :     0.044867
      px      :    -0.003658
      py      :    -0.014726
      dz2     :    -0.000237  d :     0.003611
      dxz     :     0.000222
      dyz     :     0.003578
      dx2y2   :    -0.000016
      dxy     :     0.000064

  5 C s       :     0.040860  s :     0.040860
      pz      :     0.354751  p :     0.370979
      px      :     0.006343
      py      :     0.009885
      dz2     :    -0.001054  d :     0.000030
      dxz     :     0.001014
      dyz     :     0.000098
      dx2y2   :    -0.000072
      dxy     :     0.000045

  6 C s       :     0.040854  s :     0.040854
      pz      :     0.354708  p :     0.370938
      px      :     0.006334
      py      :     0.009896
      dz2     :    -0.001054  d :     0.000030
      dxz     :     0.001029
      dyz     :     0.000083
      dx2y2   :    -0.000069
      dxy     :     0.000042

  7 N s       :    -0.006190  s :    -0.006190
      pz      :     0.020661  p :     0.003623
      px      :    -0.009785
      py      :    -0.007253
      dz2     :    -0.000061  d :     0.001986
      dxz     :     0.000927
      dyz     :     0.001133
      dx2y2   :     0.000026
      dxy     :    -0.000038

  8 C s       :     0.004245  s :     0.004245
      pz      :     0.161467  p :     0.147818
      px      :    -0.012236
      py      :    -0.001414
      dz2     :    -0.000581  d :     0.004582
      dxz     :     0.003965
      dyz     :     0.001094
      dx2y2   :     0.000096
      dxy     :     0.000007

  9 F s       :    -0.000012  s :    -0.000012
      pz      :     0.000189  p :     0.001918
      px      :    -0.000165
      py      :     0.001894
      dz2     :    -0.000001  d :     0.000001
      dxz     :     0.000000
      dyz     :    -0.000000
      dx2y2   :     0.000002
      dxy     :    -0.000001

 10 F s       :    -0.000012  s :    -0.000012
      pz      :     0.000185  p :     0.001918
      px      :    -0.000165
      py      :     0.001897
      dz2     :    -0.000001  d :     0.000001
      dxz     :     0.000000
      dyz     :    -0.000000
      dx2y2   :     0.000002
      dxy     :    -0.000001

 11 B s       :    -0.000706  s :    -0.000706
      pz      :     0.002094  p :    -0.001218
      px      :    -0.002424
      py      :    -0.000888
      dz2     :    -0.000099  d :     0.001307
      dxz     :    -0.000095
      dyz     :     0.001615
      dx2y2   :    -0.000070
      dxy     :    -0.000043

 12 I s       :     0.000063  s :     0.000063
      pz      :     0.059587  p :     0.055154
      px      :    -0.004321
      py      :    -0.000112
      dz2     :     0.000117  d :     0.000818
      dxz     :     0.000700
      dyz     :     0.000100
      dx2y2   :    -0.000019
      dxy     :    -0.000081

 13 I s       :     0.000063  s :     0.000063
      pz      :     0.059609  p :     0.055176
      px      :    -0.004295
      py      :    -0.000138
      dz2     :     0.000116  d :     0.000818
      dxz     :     0.000691
      dyz     :     0.000110
      dx2y2   :    -0.000018
      dxy     :    -0.000082

 14 C s       :     0.004244  s :     0.004244
      pz      :     0.161454  p :     0.147802
      px      :    -0.012167
      py      :    -0.001485
      dz2     :    -0.000581  d :     0.004582
      dxz     :     0.003915
      dyz     :     0.001144
      dx2y2   :     0.000098
[...]
      px      :    -0.000540
      py      :     0.002202
      dz2     :    -0.000431  d :     0.002139
      dxz     :     0.002995
      dyz     :    -0.000189
      dx2y2   :    -0.000121
      dxy     :    -0.000114

  3 C s       :    -0.000705  s :    -0.000705
      pz      :     0.050899  p :     0.045457
      px      :    -0.000034
      py      :    -0.005408
      dz2     :    -0.000120  d :     0.008885
      dxz     :     0.000559
      dyz     :     0.007887
      dx2y2   :     0.000074
      dxy     :     0.000485

  4 C s       :    -0.000702  s :    -0.000702
      pz      :     0.050970  p :     0.045529
      px      :     0.000009
      py      :    -0.005449
      dz2     :    -0.000121  d :     0.008884
      dxz     :     0.000530
      dyz     :     0.007916
      dx2y2   :     0.000079
      dxy     :     0.000480

  5 C s       :     0.012215  s :     0.012215
      pz      :     0.357986  p :     0.369131
      px      :     0.005343
      py      :     0.005801
      dz2     :    -0.001055  d :     0.000320
      dxz     :     0.002124
      dyz     :    -0.000038
      dx2y2   :    -0.000443
      dxy     :    -0.000267

  6 C s       :     0.012216  s :     0.012216
      pz      :     0.357981  p :     0.369134
      px      :     0.005346
      py      :     0.005808
      dz2     :    -0.001054  d :     0.000318
      dxz     :     0.002136
      dyz     :    -0.000053
      dx2y2   :    -0.000440
      dxy     :    -0.000271

  7 N s       :    -0.000841  s :    -0.000841
      pz      :     0.019959  p :     0.013225
      px      :    -0.003541
      py      :    -0.003192
      dz2     :     0.000016  d :     0.005277
      dxz     :     0.002609
      dyz     :     0.002351
      dx2y2   :     0.000273
      dxy     :     0.000028

  8 C s       :     0.002945  s :     0.002945
      pz      :     0.161015  p :     0.160116
      px      :    -0.001611
      py      :     0.000712
      dz2     :    -0.000523  d :     0.010163
      dxz     :     0.008133
      dyz     :     0.002265
      dx2y2   :     0.000131
      dxy     :     0.000156

  9 F s       :     0.000082  s :     0.000082
      pz      :     0.000127  p :     0.001953
      px      :    -0.000134
      py      :     0.001960
      dz2     :    -0.000000  d :     0.000016
      dxz     :    -0.000001
      dyz     :     0.000010
      dx2y2   :     0.000009
      dxy     :    -0.000002

 10 F s       :     0.000082  s :     0.000082
      pz      :     0.000123  p :     0.001951
      px      :    -0.000133
      py      :     0.001961
      dz2     :    -0.000000  d :     0.000016
      dxz     :    -0.000001
      dyz     :     0.000010
      dx2y2   :     0.000009
      dxy     :    -0.000002

 11 B s       :    -0.000293  s :    -0.000293
      pz      :     0.002849  p :     0.001547
      px      :    -0.000867
      py      :    -0.000435
      dz2     :    -0.000086  d :     0.003799
      dxz     :    -0.000482
      dyz     :     0.004565
      dx2y2   :    -0.000249
      dxy     :     0.000051

 12 I s       :     0.000123  s :     0.000123
      pz      :     0.054434  p :     0.051490
      px      :    -0.002764
      py      :    -0.000179
      dz2     :     0.000141  d :     0.001223
      dxz     :     0.001067
      dyz     :     0.000111
      dx2y2   :     0.000048
      dxy     :    -0.000145

 13 I s       :     0.000123  s :     0.000123
      pz      :     0.054504  p :     0.051558
      px      :    -0.002750
      py      :    -0.000196
      dz2     :     0.000141  d :     0.001225
      dxz     :     0.001058
      dyz     :     0.000123
      dx2y2   :     0.000049
      dxy     :    -0.000145

 14 C s       :     0.002943  s :     0.002943
      pz      :     0.160981  p :     0.160082
      px      :    -0.001593
      py      :     0.000694
      dz2     :    -0.000524  d :     0.010164
      dxz     :     0.008025
      dyz     :     0.002375
      dx2y2   :     0.000130
      dxy     :     0.000158

 15 N s       :    -0.000841  s :    -0.000841
      pz      :     0.019977  p :     0.013244
      px      :    -0.003581
      py      :    -0.003152
      dz2     :     0.000017  d :     0.005278
      dxz     :     0.002668
      dyz     :     0.002292
      dx2y2   :     0.000275
      dxy     :     0.000026

 16 H s       :    -0.004865  s :    -0.004865
      pz      :     0.003582  p :     0.004166
      px      :     0.000023
      py      :     0.000560

 17 H s       :    -0.009833  s :    -0.009833
      pz      :     0.008605  p :     0.009881
      px      :    -0.000026
      py      :     0.001302

 18 H s       :    -0.004864  s :    -0.004864
      pz      :     0.003581  p :     0.004165
      px      :     0.000019
      py      :     0.000565

 19 H s       :    -0.011316  s :    -0.011316
      pz      :     0.008486  p :     0.010107
      px      :     0.000144
      py      :     0.001477

 20 H s       :    -0.011316  s :    -0.011316
      pz      :     0.008485  p :     0.010107
      px      :     0.000135
      py      :     0.001486



                      *****************************
                      * MAYER POPULATION ANALYSIS *
                      *****************************

  NA   - Mulliken gross atomic population
  ZA   - Total nuclear charge
  QA   - Mulliken gross atomic charge
  VA   - Mayer's total valence
  BVA  - Mayer's bonded valence
  FA   - Mayer's free valence

  ATOM       NA         ZA         QA         VA         BVA        FA
  0 C      6.0443     6.0000    -0.0443     3.8153     3.7908     0.0245
  1 C      6.0643     6.0000    -0.0643     3.6964     3.5793     0.1171
  2 C      6.0443     6.0000    -0.0443     3.8154     3.7909     0.0245
  3 C      6.1226     6.0000    -0.1226     3.7769     3.7736     0.0034
  4 C      6.1225     6.0000    -0.1225     3.7769     3.7736     0.0034
  5 C      5.8608     6.0000     0.1392     3.8848     3.7350     0.1498
  6 C      5.8608     6.0000     0.1392     3.8849     3.7351     0.1498
  7 N      7.1415     7.0000    -0.1415     3.3797     3.3789     0.0008
  8 C      5.8612     6.0000     0.1388     3.9262     3.8978     0.0285
  9 F      9.2293     9.0000    -0.2293     1.2152     1.2152     0.0000
 10 F      9.2293     9.0000    -0.2293     1.2152     1.2152     0.0000
 11 B      4.8756     5.0000     0.1244     4.2222     4.2221     0.0000
 12 I     24.8635    25.0000     0.1365     1.1843     1.1810     0.0033
 13 I     24.8635    25.0000     0.1365     1.1844     1.1811     0.0033
 14 C      5.8613     6.0000     0.1387     3.9263     3.8978     0.0284
 15 N      7.1414     7.0000    -0.1414     3.3798     3.3790     0.0008
 16 H      0.9778     1.0000     0.0222     0.9999     0.9998     0.0001
 17 H      0.9856     1.0000     0.0144     0.9987     0.9982     0.0005
 18 H      0.9779     1.0000     0.0221     0.9999     0.9998     0.0001
 19 H      0.9364     1.0000     0.0636     0.9998     0.9992     0.0005
 20 H      0.9364     1.0000     0.0636     0.9998     0.9992     0.0005

  Mayer bond orders larger than 0.100000
B(  0-C ,  3-C ) :   1.4493 B(  0-C , 14-C ) :   1.1855 B(  0-C , 16-H ) :   1.0181 
B(  1-C ,  8-C ) :   1.2502 B(  1-C , 14-C ) :   1.2502 B(  1-C , 17-H ) :   0.9812 
B(  2-C ,  4-C ) :   1.4493 B(  2-C ,  8-C ) :   1.1855 B(  2-C , 18-H ) :   1.0181 
B(  3-C ,  6-C ) :   1.2188 B(  3-C , 12-I ) :   1.0320 B(  4-C ,  5-C ) :   1.2187 
B(  4-C , 13-I ) :   1.0320 B(  5-C , 15-N ) :   1.2857 B(  5-C , 19-H ) :   0.9858 
B(  6-C ,  7-N ) :   1.2856 B(  6-C , 20-H ) :   0.9858 B(  7-N , 11-B ) :   0.8192 
B(  7-N , 14-C ) :   1.2020 B(  8-C , 15-N ) :   1.2019 B(  9-F , 11-B ) :   1.2122 
B( 10-F , 11-B ) :   1.2121 B( 11-B , 15-N ) :   0.8194 

-------
TIMINGS
-------

Total SCF time: 0 days 0 hours 0 min 38 sec 

Total time                  ....      38.091 sec
Sum of individual times     ....      37.561 sec  ( 98.6%)

SCF preparation             ....       0.510 sec  (  1.3%)
Fock matrix formation       ....      36.775 sec  ( 96.5%)
  Split-RI-J                ....       2.945 sec  (  8.0% of F)
  Chain of spheres X        ....      27.319 sec  ( 74.3% of F)
  XC integration            ....       3.333 sec  (  9.1% of F)
    Basis function eval.    ....       0.510 sec  ( 15.3% of XC)
    Density eval.           ....       0.831 sec  ( 24.9% of XC)
    XC-Functional eval.     ....       0.064 sec  (  1.9% of XC)
    XC-Potential eval.      ....       1.481 sec  ( 44.4% of XC)
  CPCM terms                ....       3.146 sec  (  8.6% of F)
Diagonalization             ....       0.000 sec  (  0.0%)
Density matrix formation    ....       0.021 sec  (  0.1%)
Total Energy calculation    ....       0.001 sec  (  0.0%)
Population analysis         ....       0.057 sec  (  0.1%)
Orbital Transformation      ....       0.190 sec  (  0.5%)
Orbital Orthonormalization  ....       0.000 sec  (  0.0%)
NR solution                 ....       0.007 sec  (  0.0%)
TRAH solution               ....       0.007 sec  (  0.0%)
Finished LeanSCF after  38.2 sec

Maximum memory used throughout the entire LEANSCF-calculation: 33.4 MB


-------------------------------------------------------------------------------
                          DFT DISPERSION CORRECTION                            
                                                                               
                              DFTD3 V3.1  Rev 1                                
                          USING Becke-Johnson damping                          
-------------------------------------------------------------------------------
The B3LYP functional is recognized
Active option DFTDOPT                   ...         4   

molecular C6(AA) [au] = 11757.936777 


            DFT-D V3
 parameters
 s6 scaling factor         :     1.0000 
 a1 scaling factor         :     0.3981 
 s8 scaling factor         :     1.9889 
 a2 scaling factor         :     4.4211 
 ad hoc parameters k1-k3   :    16.0000     1.3333    -4.0000 

 Edisp/kcal,au: -33.984722626235  -0.054158097058 
 E6   /kcal   : -14.588304913 
 E8   /kcal   : -19.396417713 
 % E8         :  57.073932680 

-------------------------   ----------------
Dispersion correction           -0.054158097
-------------------------   ----------------


-------------------------   --------------------
FINAL SINGLE POINT ENERGY     -1274.721472783321
-------------------------   --------------------

                                *** OPTIMIZATION RUN DONE ***



           ************************************************************
           *        Program running with 4 parallel MPI-processes     *
           *              working on a common directory               *
           ************************************************************

------------------------------------------------------------------------------
                              ORCA PROPERTY CALCULATIONS
------------------------------------------------------------------------------

GBWName                                 ... Iodo_T1.gbw
Number of atoms                         ...     21
Number of basis functions               ...    273
Max core memory                         ...   4096 MB

Electric properties:
Dipole moment                           ... YES
Quadrupole moment                       ...  NO
Static polarizability (Dipole/Dipole)   ...  NO
Static polarizability (Dipole/Quad.)    ...  NO
Static polarizability (Quad./Quad.)     ...  NO
Static polarizability (Velocity)        ...  NO
Static hyperpolarizability              ...  NO

Atomic electric properties:
Dipole moment                           ...  NO
Quadrupole moment                       ...  NO
Static polarizability                   ...  NO

Choice of electric origin               ... Center of mass
Position of electric origin             ...    -4.240022     2.806328    -0.086574

General magnetic properties:
Magnetizability                         ...  NO

EPR properties:
g-Tensor (aka g-matrix)                 ...  NO
Zero-Field splitting spin-orbit         ...  NO
Zero-field splitting spin-spin          ...  NO
Hyperfine couplings                     ...  NO (   0 nuclei)
Quadrupole couplings                    ...  NO (   0 nuclei)
Contact density                         ...  NO (   0 nuclei)

NMR properties:
Chemical shifts                         ...  NO (   0 nuclei)
Spin-rotation constants                 ...  NO (   0 nuclei)
Spin-spin couplings                     ...  NO (   0 nuclei,    0 pairs)

Choice of magnetic origin               ... GIAO
Position of magnetic origin             ...     0.000000     0.000000     0.000000

Properties with geometric perturbations:
SCF Hessian                             ...  NO
IR spectrum                             ...  NO
VCD spectrum                            ...  NO
X-ray spectroscopy properties:
SCF XES/XAS/RIXS spectra                ...  NO

SCF SOC stabilization energy            ...  NO
Diagonal Born-Oppenheimer correction    ...  NO

-------------
DIPOLE MOMENT
-------------

Method             : SCF
Type of density    : Electron Density
Multiplicity       :   3
Irrep              :   0
Energy             : -1274.6673146862633530 Eh
Basis              : AO
                                X                 Y                 Z
Electronic contribution:     -0.139774726      21.191733296      -0.104640483
Nuclear contribution   :      0.128952050     -19.302254574       0.101004630
                        -----------------------------------------
Total Dipole Moment    :     -0.010822676       1.889478722      -0.003635853
                        -----------------------------------------
Magnitude (a.u.)       :      1.889513216
Magnitude (Debye)      :      4.802760913



--------------------
Rotational spectrum 
--------------------
 
Rotational constants in cm-1:             0.040096             0.002032             0.001956 
Rotational constants in MHz :          1202.056289            60.905640            58.630528 

Dipole components along the rotational axes: 
x,y,z [a.u.] :     0.001507    -1.889513    -0.000449 
x,y,z [Debye]:     0.003831    -4.802759    -0.001140 

 

Dipole moment calculation done in   0.0 sec 

Maximum memory used throughout the entire PROP-calculation: 15.0 MB

--------------------------------
SUGGESTED CITATIONS FOR THIS RUN
--------------------------------

Below you find a list of papers that are relevant to this ORCA run
We neither can nor want to force you to cite these papers, but we appreciate if you do
You receive ORCA, which is the product of decades of hard work by many enthusiastic individuals, for free
The only thing we kindly ask in return is that you cite our papers,
We deeply appreciate it, if you show your appreciation for ORCA by not just citing the generic ORCA reference.

Please note that relegating all ORCA citations to the supporting information does *not* help us.
SI sections are not indexed - citations you put there will not count into any citation statistics
But we need these citations in order to attract the funding resources that allow us to do what we are doing

Therefore, if you are a happy ORCA user, please consider citing a few of the papers listed below in the main body of your paper

In addition to the list printed below, the program has created the file Iodo_T1.bibtex that contains the list in bibtex format
You can import this file easily into all common literature databanks and citation aid programs


List of essential papers. We consider these as the minimum necessary citations

  1. Neese, F.
     Software update: the ORCA program system, version 6.0
     WIRES Comput. Molec. Sci. 2025 15(1), e70019
     doi.org/10.1002/wcms.7019

List of papers to cite with high priority. The work reported in these papers was absolutely
necessary for this run to complete.
Our perspective: the developers of density functionals and basis sets usually get cited in chemistry papers
Good! But without the algorithms to do something with them, the functionals or basis sets would not do anything.
Hence, in our opinion, the algorithm design and method developments papers are equally worthy of getting cited

  1. Neese, F.
     An improvement of the resolution of the identity approximation for the formation of the Coulomb matrix
     J. Comp. Chem. 2003 24(14), 1740-1747
     doi.org/10.1002/jcc.10318
  2. Neese, F.; Wennmohs, F.; Hansen, A.; Becker, U.
     Efficient, approximate and parallel Hartree-Fock and hybrid DFT calculations. A 'chain-of-spheres' algorithm for the Hartree-Fock exchange
     Chem. Phys. 2009 356(1-3), 98-109
     doi.org/10.1016/j.chemphys.2008.10.036
  3. Grimme, S.; Antony, J.; Ehrlich, S.; Krieg, H.
     A consistent and accurate ab initio parametrization of density functional dispersion correction (DFT-D) for the 94 elements H-Pu
     J. Chem. Phys. 2010 132 , 154104
     doi.org/10.1063/1.3382344
  4. Grimme, S.; Ehrlich, S.; Goerigk, L.
     Effect of the damping function in dispersion corrected density functional theory
     J. Comput. Chem. 2011 32(7), 1456-1465
     doi.org/10.1002/jcc.21759
  5. Garcia-Rates, M.; Neese, F.
     Effect of the Solute Cavity on the Solvation Energy and its Derivatives within the Framework of the Gaussian Charge Scheme
     J. Comput. Chem. 2020 41 , 922-939
     doi.org/10.1002/jcc.26139
  6. Helmich-Paris, B.; de Souza, B.; Neese, F.; Izsák, R.
     An improved chain of spheres for exchange algorithm
     J. Chem. Phys. 2021 155(10), 104109
     doi.org/10.1063/5.0058766
  7. Helmich-Paris, B.
     A trust-region augmented Hessian implementation for restricted and unrestricted Hartree–Fock and Kohn–Sham methods
     J. Chem. Phys. 2021 154 , 164104
     doi.org/10.1063/5.0040798
  8. Neese, F.
     The SHARK Integral Generation and Digestion System
     J. Comp. Chem. 2022 44(3), 381
     doi.org/10.1002/jcc.26942

List of suggested additional citations. These are papers that are important in the 'surrounding' of 
of this run, or papers that preceded the highly important papers. If you like your results we are grateful for a citation.

  1. Izsak, R.; Neese, F.
     An overlap fitted chain of spheres exchange method
     J. Chem. Phys. 2011 135 , 144105
     doi.org/10.1063/1.3646921
  2. Izsak, R.; Hansen, A.; Neese, F.
     The resolution of identity and chain of spheres approximations for the LPNO-CCSD singles Fock term
     Molec. Phys. 2012 110 , 2413-2417
     doi.org/10.1080/00268976.2012.687466
  3. Neese, F.
     The ORCA program system
     WIRES Comput. Molec. Sci. 2012 2(1), 73-78
     doi.org/10.1002/wcms.81
  4. Izsak, R.; Neese, F.; Klopper, W.
     Robust fitting techniques in the chain of spheres approximation to the Fock exchange: The role of the complementary space
     J. Chem. Phys. 2013 139 , 
     doi.org/10.1063/1.4819264
  5. Neese, F.
     Software update: the ORCA program system, version 4.0
     WIRES Comput. Molec. Sci. 2018 8(1), 1-6
     doi.org/10.1002/wcms.1327
  6. Neese, F.; Wennmohs, F.; Becker, U.; Riplinger, C.
     The ORCA quantum chemistry program package
     J. Chem. Phys. 2020 152(22), 224108
     doi.org/10.1063/5.0004608
  7. Neese, F.
     Software update: The ORCA program system—Version 5.0
     WIRES Comput. Molec. Sci. 2022 12(1), e1606
     doi.org/10.1002/wcms.1606

Timings for individual modules:

Sum of individual times          ...      668.200 sec (=  11.137 min)
Startup calculation              ...       22.872 sec (=   0.381 min)   3.4 %
SCF iterations                   ...      455.958 sec (=   7.599 min)  68.2 %
Property calculations            ...        0.460 sec (=   0.008 min)   0.1 %
SCF Gradient evaluation          ...      188.875 sec (=   3.148 min)  28.3 %
Geometry relaxation              ...        0.035 sec (=   0.001 min)   0.0 %
                             ****ORCA TERMINATED NORMALLY****
TOTAL RUN TIME: 0 days 0 hours 11 minutes 12 seconds 42 msec
