
                                 *****************
                                 * O   R   C   A *
                                 *****************

                                            #,                                       
                                            ###                                      
                                            ####                                     
                                            #####                                    
                                            ######                                   
                                           ########,                                 
                                     ,,################,,,,,                         
                               ,,#################################,,                 
                          ,,##########################################,,             
                       ,#########################################, ''#####,          
                    ,#############################################,,   '####,        
                  ,##################################################,,,,####,       
                ,###########''''           ''''###############################       
              ,#####''   ,,,,##########,,,,          '''####'''          '####       
            ,##' ,,,,###########################,,,                        '##       
           ' ,,###''''                  '''############,,,                           
         ,,##''                                '''############,,,,        ,,,,,,###''
      ,#''                                            '''#######################'''  
     '                                                          ''''####''''         
             ,#######,   #######,   ,#######,      ##                                
            ,#'     '#,  ##    ##  ,#'     '#,    #''#        ,####,    ,#,          
            ##       ##  ##   ,#'  ##            #'  '#       #'       ,# #          
            ##       ##  #######   ##           ,######,      #####,      #          
            '#,     ,#'  ##    ##  '#,     ,#' ,#      #,     #,   #      #          
             '#######'   ##     ##  '#######'  #'      '#     '####' #    #          



                #########################################################
                #                        -***-                          #
                #          Department of theory and spectroscopy        #
                #                                                       #
                #                      Frank Neese                      #
                #                                                       #
                #     Directorship, Architecture, Infrastructure        #
                #                    SHARK, DRIVERS                     #
                #        Core code/Algorithms in most modules           #
                #                                                       #
                #        Max Planck Institute fuer Kohlenforschung      #
                #                Kaiser Wilhelm Platz 1                 #
                #                 D-45470 Muelheim/Ruhr                 #
                #                      Germany                          #
                #                                                       #
                #                  All rights reserved                  #
                #                        -***-                          #
                #########################################################


                         Program Version 6.1.0  -  RELEASE   -
                                (GIT: $679e74b$)
                          ($2025-06-10 18:02:51 +0200$)


 With contributions from (in alphabetic order):
[Max-Planck-Institut fuer Kohlenforschung]                               
  Daniel Aravena         : Magnetic Suceptibility                        
  Michael Atanasov       : Ab Initio Ligand Field Theory (pilot matlab implementation)
  Alexander A. Auer      : GIAO ZORA, VPT2 properties, NMR spectrum      
  Ute Becker             : All parallelization in ORCA, NUMFREQ, NUMCALC 
  Giovanni Bistoni       : ED, misc. LED, open-shell LED, HFLD           
  Dmytro Bykov           : pre 5.0 version of the SCF Hessian            
  Marcos Casanova-Páez   : Triplet and SCS-CIS(D). UHF-(DLPNO)-IP/EA/STEOM-CCSD. UHF-CVS-IP/STEOM-CCSD   
  Vijay G. Chilkuri      : MRCI spin determinant printing, contributions to CSF-ICE 
  Pauline Colinet        : FMM embedding                                 
  Dipayan Datta          : RHF DLPNO-CCSD density                        
  Achintya Kumar Dutta   : EOM-CC, STEOM-CC                              
  Nicolas Foglia         : Exact transition moments, OPA infrastructure, MCD improvements    
  Dmitry Ganyushin       : Spin-Orbit,Spin-Spin,Magnetic field MRCI      
  Miquel Garcia-Rates    : C-PCM and meta-GGA Hessian, CCSD/C-PCM, Gaussian charge scheme 
  Tiago L. C. Gouveia    : GS-ROHF, GS-ROCIS                             
  Yang Guo               : DLPNO-NEVPT2, F12-NEVPT2, CIM, IAO-localization        
  Andreas Hansen         : Spin unrestricted coupled pair/coupled cluster methods 
  Ingolf Harden          : AUTO-CI MPn and infrastructure                
  Benjamin Helmich-Paris : MC-RPA, TRAH-(SCF,CASSCF), AVAS, COSX integrals, SCF dyn. polar., MC-PDFT, srDFT 
  Lee Huntington         : MR-EOM, pCC                                   
  Robert Izsak           : Overlap fitted RIJCOSX, COSX-SCS-MP3, EOM     
  Riya Kayal             : Wick's Theorem for AUTO-CI, AUTO-CI UHF-CCSDT 
  Emily Kempfer          : AUTO-CI RHF CISDT and CCSDT, approximate NEVPT4
  Christian Kollmar      : KDIIS, OOCD, Brueckner-CCSD(T), CCSD density, CASPT2, CASPT2-K, improved NEVPT2 
  Axel Koslowski         : Symmetry handling                             
  Simone Kossmann        : meta-GGA functionals, TD-DFT gradient, OOMP2, (MP2 Hessian; deprecated post 5.0) 
  Lucas Lang             : DCDCAS, Hyperfine gauge corrections, ICE-SOC+SSC
  Marvin Lechner         : AUTO-CI (C++ implementation), FIC-MRCC        
  Spencer Leger          : CASSCF response                               
  Dagmar Lenk            : GEPOL surface, SMD, ORCA-2-JSON               
  Dimitrios Liakos       : Extrapolation schemes; Compound Job, Property file
  Dimitrios Manganas     : Further ROCIS development; embedding schemes. LFT, Crystal Embedding 
  Dimitrios Pantazis     : SARC Basis sets                               
  Anastasios Papadopoulos: AUTO-CI, single reference methods and gradients 
  Taras Petrenko         : pre 6.0 DFT Hessian and TD-DFT gradient,  ECA, NRVS 
  Petra Pikulova         : Analytic Raman intensities                    
  Peter Pinski           : DLPNO-MP2, DLPNO-MP2 Gradient                 
  Shashank Vittal Rao    : ES-AILFT, MagRelax                            
  Christoph Reimann      : Effective Core Potentials                     
  Marius Retegan         : Local ZFS, SOC                                
  Christoph Riplinger    : Optimizer, TS searches, QM/MM, DLPNO-CCSD(T), (RO)-DLPNO pert. Triples 
  Michael Roemelt        : Original ROCIS implementation, recursive CI coupling coefficients
  Masaaki Saitow         : Open-shell DLPNO-CCSD energy and density      
  Barbara Sandhoefer     : DKH picture change effects                    
  Yorick L. A. Schmerwitz: GMF and freeze-and-release deltaSCF, NEB S-IDPP initial path                    
  Kantharuban Sivalingam : CASSCF convergence/infrastructure, NEVPT2, NEVPT3, NEVPT4(SD), FIC-MRCI and CEPA variants
  Bernardo de Souza      : ESD, SOC TD-DFT                               
  Georgi L. Stoychev     : AutoAux, RI-MP2 NMR, DLPNO-MP2 response, X2C  
  Van Anh Tran           : RI-MP2 g-tensors                              
  Willem Van den Heuvel  : Paramagnetic NMR                              
  Zikuan Wang            : NOTCH, Electric field optimization            
  Frank Wennmohs         : Technical directorship and infrastructure     
  Hang Xu                : AUTO-CI-Response properties                   
                                                                         
[FACCTs GmbH]                                                            
  Markus Bursch, Nicolas Foglia, Miquel Garcia-Rates, Ingolf Harden, Hagen Neugebauer, Anastasios Papadopoulos, 
  Christoph Riplinger, Bernardo de Souza, Georgi L. Stoychev                                                    
                                                                 
  APM, various basis sets, CI-OPT, improved COSX, DLPNO-Multilevel,           
  DOCKER, DRACO, updates on ESD, Fragmentator, GOAT, IRC, LR-CPCM, L-BFGS, MBIS, meta-GGA TD-DFT gradient, ML-optimized integration grids, 
  MM, NACMEs, nearIR, NEB, NEB-TS, NL-DFT gradient (VV10), 2- and 3-layer-ONIOM, interface openCOSMO-RS, QMMM,   
  Crystal-QMMM, RESP, rigid body optimization, SF, symmetry and pop. for TD-DFT, various functionals, SOLVATOR                                   
                                                                         
[Other institutions]                                                     
  V. Asgeirsson          : NEB                                           
  Christoph Bannwarth    : sTDA-DFT, sTD-DFT, PBEh-3c, B97-3c, D3        
  Giovanni Bistoni       : ETS/NOCV, ADLD/ADEX, COVALED                  
  Martin Brehm           : Molecular dynamics                            
  Ronald Cardenas        : ETS/NOCV                                      
  Martina Colucci        : COVALED                                       
  Sebastian Ehlert       : rSCAN, r2SCAN, r2SCAN-3c, D4, dhf basis sets  
  Marvin Friede          : D4 for Fr, Ra, Ac-Lr                          
  Lars Goerigk           : TD-DFT with DH, B97 family of functionals     
  Stefan Grimme          : VdW corrections, initial TS optimization, DFT functionals, gCP, sTDA/sTD-DF 
  Waldemar Hujo          : DFT-NL                                        
  H. Jonsson             : NEB                                           
  Holger Kruse           : gCP                                           
  Marcel Mueller         : wB97X-3c, vDZP basis set                      
  Hagen Neugebauer       : wr2SCAN, Native XTB                           
  Gianluca Regni         : ADLD/ADEX                                     
  Tobias Risthaus        : pre 6.0 range-separated hybrid DFT and stability analysis
  Lukas Wittmann         : regularized MP2, r2SCAN double-hybrids, wr2SCAN        
                                                                         
We gratefully acknowledge several colleagues who have allowed us to      
interface, adapt or use parts of their codes:                            
  Ed Valeev, F. Pavosevic, A. Kumar             : LibInt (2-el integral package), F12 methods 
  Garnet Chan, S. Sharma, J. Yang, R. Olivares  : DMRG                   
  Ulf Ekstrom                                   : XCFun DFT Library      
  Mihaly Kallay                                 : mrcc  (arbitrary order and MRCC methods)
  Frank Weinhold                                : gennbo (NPA and NBO analysis)           
  Simon Mueller                                 : openCOSMO-RS                            
  Christopher J. Cramer and Donald G. Truhlar   : smd solvation model                     
  S Lehtola, MJT Oliveira, MAL Marques          : LibXC Library                           
  Liviu Ungur et al                             : ANISO software                          


 Your calculation uses the libint2 library for the computation of 2-el integrals
 For citations please refer to: http://libint.valeyev.net

 Your ORCA version has been built with support for libXC version: 7.0.0
 For citations please refer to: https://libxc.gitlab.io

 This ORCA versions uses:
   CBLAS   interface :  Fast vector & matrix operations
   LAPACKE interface :  Fast linear algebra routines
   SCALAPACK package :  Parallel linear algebra routines
   Shared memory     :  Shared parallel matrices
   BLAS/LAPACK       :  OpenBLAS 0.3.29  USE64BITINT DYNAMIC_ARCH NO_AFFINITY Haswell SINGLE_THREADED
        Core in use  :  Haswell
   Copyright (c) 2011-2014, The OpenBLAS Project


  ***********************************
  * Starting time: Fri Jan  2 11:37:24 2026
  * Host name:     corine-kengne-Latitude-5491
  * Process ID:    102393
  * Working dir.:  /home/corine-kengne/stage_BODIPY/OO-DFT /TPP-BODIPY/Etats_Triplets
  ***********************************

Your calculation utilizes the atom-pairwise dispersion correction
with the Becke-Johnson damping scheme (D3BJ)


Your calculation utilizes the SMD solvation module
Please cite in your paper:
Marenich, A. V.; Cramer, C. J.; Truhlar, D. G. J. Phys. Chem. B 2009, 113, 6378 

Warning: RI is on but no J-basis has been assigned. Assigning Def2/J (nothing to worry about!)
================================================================================

----- Orbital basis set information -----
Your calculation utilizes the basis: def2-SVP
   F. Weigend and R. Ahlrichs, Phys. Chem. Chem. Phys. 7, 3297 (2005).

----- AuxJ basis set information -----
Your calculation utilizes the auxiliary basis: def2/J
   H-Rn: F. Weigend, Phys. Chem. Chem. Phys. 8, 1057 (2006).
   Fr-Lr: K. Eichkorn, F. Weigend, O. Treutler, R. Ahlrichs; Theor. Chem. Acc. 97, 119 (1997).

================================================================================
                                        WARNINGS
                       Please study these warnings very carefully!
================================================================================

WARNING: Old DensityContainer found on disk!
         Will remove this file - 
         If you want to keep old densities, please start your calculation with a different basename. 


WARNING: Geometry Optimization
  ===> : Switching off AutoStart
         For restart on a previous wavefunction, please use MOREAD

================================================================================
                                       INPUT FILE
================================================================================
NAME = TPP_Bodipy_T1.inp
|  1> ! Opt UKS B3LYP D3BJ def2-SVP TRAH TightSCF TIGHTOPT    
|  2> ! CPCM
|  3> ! SMD(Water)
|  4> 
|  5> %pal
|  6>   nprocs 4
|  7> end
|  8> 
|  9> %cpcm
| 10>   SMDSolvent "Water"  # for more complex biological media
| 11> end
| 12> 
| 13> %scf    # Confirme l'utilisation d'un formalisme de spin non restreint
| 14>   HFTyp UKS
| 15>   #SCF_ALGORITHM DIIS_TRAH Utilise une combinaison de DIIS et TRAH (Trust Radius Augmented Hessian) pour garantir la convergence
| 16>   MaxIter 500
| 17>   ConvForce 1e-6   #Définit un seuil de convergence 
| 18> end
| 19> 
| 20> %geom
| 21>   MaxStep 0.2  # Limite la taille maximale de déplacement des atomes  pour éviter que la géométrie ne se déforme de manière irréaliste pendant l'optimisation
| 22>   Trust 0.3    # Définit le rayon de confiance initial de l'algorithme à 0,3, contrôlant la zone dans laquelle ORCA estime que son approximation de la surface d'énergie est fiable
| 23> end
| 24> 
| 25> * xyz 1 3  # Charge 0, Multiplicity 3 (Triplet)
| 26> P          -6.34504701206498     10.89278100044507      1.43050639508251
| 27>   C          -7.65476758329342     13.82807010090515      4.73536479483681
| 28>   C          -7.36194041416479     14.29229109556853      3.44807853988861
| 29>   C          -6.97988125761365     13.39418897510411      2.45097798484724
| 30>   C          -6.90708993457700     12.01930696563768      2.73924574951425
| 31>   C          -7.55806064086247     12.46464858438503      5.02750785778122
| 32>   C          -7.18327585779514     11.55620988923853      4.03404936878546
| 33>   C          -8.51843328391593     11.83672045370093     -0.11810331715709
| 34>   C          -9.39312146622854     11.74992865041882     -1.20421339595399
| 35>   C          -9.28214193227998     10.69556337842464     -2.11560830982246
| 36>   C          -8.29682428536955      9.71762097244880     -1.94117343840986
| 37>   C          -7.42334912677985      9.79148650169510     -0.85548265315485
| 38>   C          -7.52956887430282     10.85772491513243      0.05415266035938
| 39>   C          -3.24777122625484     12.15291172420144     -0.93920293159523
| 40>   C          -4.48382635262277     11.64775709165360     -0.52751033502045
| 41>   C          -4.78671767758761     11.59552520232053      0.83990055713772
| 42>   C          -2.32300900729909     12.60404739861581      0.00726672222684
| 43>   C          -2.63336946011588     12.56145293039348      1.37179789779403
| 44>   C          -3.86457369607709     12.06063782944045      1.79284513000435
| 45>   H          -8.72090139115544      6.04147273789146      4.04991161494881
| 46>   H          -7.94893285516210     14.53406026531653      5.51566959258134
| 47>   H          -7.42208098419576     15.35895025591372      3.22068620876256
| 48>   H          -7.77042460428663     12.10175434473473      6.03564998200456
| 49>   H          -7.09915458864292     10.49601357835822      4.27203209819713
| 50>   H          -6.72668470454508     13.76546020770835      1.45568971941231
| 51>   H          -5.19994711564679     11.29266959638491     -1.26973617029175
| 52>   H          -3.00920925360497     12.19413368317020     -2.00426163018389
| 53>   H          -1.35718302986903     12.99709221863910     -0.31917407424323
| 54>   H          -1.91288540375092     12.91933826718583      2.11058635049543
| 55>   H          -4.10433112563324     12.02248644283930      2.85738731799552
| 56>   H          -6.66321983893309      9.02004137162366     -0.71097541592283
| 57>   H          -8.21226963742449      8.88937468330152     -2.64835861733404
| 58>   H          -9.96992306590021     10.63171842307363     -2.96223994399327
| 59>   H         -10.16737261008260     12.50946750640628     -1.33398827641136
| 60>   H          -8.62348824037535     12.65701138115750      0.59240134950665
| 61>   C          -6.16481995285986      9.23092545486164      2.05054959195969
| 62>   C          -7.35772344575581      8.59888921383331      2.53936954393642
| 63>   C          -8.72114109642479      8.97576429884750      2.48243344067363
| 64>   C          -9.46365644758846      7.94862645175075      3.10622550151580
| 65>   C          -8.55139803619017      6.98169804876002      3.52746861804675
| 66>   C          -4.92554578156826      8.50983877582130      2.06756304862526
| 67>   C          -3.66215176697937      8.71517727963638      1.45529588053327
| 68>   C          -2.85672728382698      7.59971514948210      1.76900588702509
| 69>   C          -3.62696375518393      6.74484918189273      2.55544598295522
| 70>   N          -7.28677190283584      7.37348646422770      3.18477173525590
| 71>   N          -4.86810862866734      7.28927214063754      2.73244056861364
| 72>   B          -5.97810323403166      6.69700516398595      3.61578626811073
| 73>   F          -5.71724316072200      6.95596394825686      4.98112480306987
| 74>   F          -6.05505867419297      5.30691388070546      3.44069006174402
| 75>   H          -1.83015709408907      7.42783509348276      1.44838930134798
| 76>   H          -3.37231284017004      5.78408102467591      2.99997732734685
| 77>   H          -3.37707923129939      9.55015974354292      0.82587582775864
| 78>   H          -9.11907036574723      9.87995725445966      2.02871085773605
| 79>   H         -10.54522347845247      7.90661558610377      3.22671790987667
| 80> *
| 81> # Notes:
| 82> # - Triplet optimization: multiplicity 3 in the geometry read line above
| 83> # - Adjust functional/basis as required
| 84> 
| 85> # Opt : Lance une optimisation de géométrie, cherchant la structure la plus stable (minimum d'énergie) de la molécule
| 86> # UKS : Utilise la méthode Unrestricted Kohn-Sham
| 87> # D3BJ : Applique la correction de dispersion de Grimme avec l'amortissement de Becke-Johnson, 
| 88> # TightSCF : Impose des critères de convergence très stricts pour le cycle SCF (énergie et densité) avant de passer à l'étape suivante
| 89> # TIGHTOPT : Définit des tolérances de convergence plus rigoureuses pour la géométrie (forces et déplacements atomiques) que l'option standard
| 90> 
| 91> 
| 92> 
| 93>                          ****END OF INPUT****
================================================================================

                       *****************************
                       * Geometry Optimization Run *
                       *****************************

Geometry optimization settings:
Update method            Update   .... BFGS
Choice of coordinates    CoordSys .... (2022) Redundant Internals
Initial Hessian          InHess   .... Almloef's Model
Max. no of cycles        MaxIter  .... 162

Convergence Tolerances:
Energy Change            TolE     ....  1.0000e-06 Eh
Max. Gradient            TolMAXG  ....  1.0000e-04 Eh/bohr
RMS Gradient             TolRMSG  ....  3.0000e-05 Eh/bohr
Max. Displacement        TolMAXD  ....  1.0000e-03 bohr
RMS Displacement         TolRMSD  ....  6.0000e-04 bohr
Strict Convergence                .... False

------------------------------------------------------------------------------
                        ORCA OPTIMIZATION COORDINATE SETUP
------------------------------------------------------------------------------

The optimization will be done in redundant internal coordinates (2022)
Making redundant internal coordinates   ...  (2022 redundants) done
Evaluating the initial hessian          ...  (Almloef) done
Evaluating the coordinates              ...  done
Calculating the B-matrix                .... done
Calculating the G-matrix                .... done
The number of degrees of freedom        ....  308

    -----------------------------------------------------------------
                    Redundant Internal Coordinates


    -----------------------------------------------------------------
         Definition                    Initial Value    Approx d2E/dq
    -----------------------------------------------------------------
      1. B(C   2,C   1)                  1.3994         0.603562   
      2. B(C   3,C   2)                  1.3953         0.612827   
      3. B(C   4,P   0)                  1.8160         0.439160   
      4. B(C   4,C   3)                  1.4067         0.587700   
      5. B(C   5,C   1)                  1.3977         0.607328   
      6. B(C   6,C   4)                  1.4026         0.596561   
      7. B(C   6,C   5)                  1.3974         0.608074   
      8. B(C   8,C   7)                  1.3972         0.608424   
      9. B(C   9,C   8)                  1.3981         0.606511   
     10. B(C  10,C   9)                  1.3992         0.604121   
     11. B(C  11,C  10)                  1.3954         0.612525   
     12. B(C  12,C  11)                  1.4056         0.590096   
     13. B(C  12,C   7)                  1.4021         0.597575   
     14. B(C  12,P   0)                  1.8162         0.438752   
     15. B(C  14,C  13)                  1.3973         0.608218   
     16. B(C  15,C  14)                  1.4015         0.598887   
     17. B(C  15,P   0)                  1.8086         0.451205   
     18. B(C  16,C  13)                  1.3980         0.606614   
     19. B(C  17,C  16)                  1.4000         0.602194   
     20. B(C  18,C  17)                  1.3943         0.615095   
     21. B(C  18,C  15)                  1.4053         0.590713   
     22. B(H  20,C   1)                  1.0926         0.356643   
     23. B(H  21,C   2)                  1.0923         0.357090   
     24. B(H  22,C   5)                  1.0923         0.357057   
     25. B(H  23,C   6)                  1.0898         0.360326   
     26. B(H  24,C   3)                  1.0920         0.357413   
     27. B(H  25,C  14)                  1.0908         0.359061   
     28. B(H  26,C  13)                  1.0922         0.357165   
     29. B(H  27,C  16)                  1.0926         0.356621   
     30. B(H  28,C  17)                  1.0922         0.357149   
     31. B(H  29,C  18)                  1.0919         0.357629   
     32. B(H  30,C  11)                  1.0926         0.356658   
     33. B(H  31,C  10)                  1.0924         0.356990   
     34. B(H  32,C   9)                  1.0927         0.356599   
     35. B(H  33,C   8)                  1.0923         0.357018   
     36. B(H  34,C   7)                  1.0903         0.359718   
     37. B(C  35,P   0)                  1.7829         0.495907   
     38. B(C  36,C  35)                  1.4358         0.528100   
     39. B(C  37,C  36)                  1.4157         0.568523   
     40. B(C  38,C  37)                  1.4126         0.575004   
     41. B(C  39,C  38)                  1.3945         0.614568   
     42. B(C  39,H  19)                  1.0889         0.361559   
     43. B(C  40,C  35)                  1.4339         0.531749   
     44. B(C  41,C  40)                  1.4189         0.561920   
     45. B(C  42,C  41)                  1.4112         0.578064   
     46. B(C  43,C  42)                  1.3938         0.616241   
     47. B(N  44,C  39)                  1.3676         0.607684   
     48. B(N  44,C  36)                  1.3868         0.566233   
     49. B(N  45,C  43)                  1.3668         0.609364   
     50. B(N  45,C  40)                  1.3911         0.557352   
     51. B(B  46,N  45)                  1.5373         0.377354   
     52. B(B  46,N  44)                  1.5349         0.380596   
     53. B(F  47,B  46)                  1.4140         0.551534   
     54. B(F  48,B  46)                  1.4032         0.573779   
     55. B(H  49,C  42)                  1.0891         0.361265   
     56. B(H  50,C  43)                  1.0888         0.361663   
     57. B(H  51,C  41)                  1.0838         0.368390   
     58. B(H  52,C  37)                  1.0871         0.363963   
     59. B(H  53,C  38)                  1.0891         0.361334   
     60. A(C   4,P   0,C  12)          110.8708         0.436411   
     61. A(C  15,P   0,C  35)          112.8703         0.448369   
     62. A(C   4,P   0,C  35)          111.0315         0.446175   
     63. A(C   4,P   0,C  15)          105.1279         0.438619   
     64. A(C  12,P   0,C  15)          108.7823         0.438545   
     65. A(C  12,P   0,C  35)          108.1486         0.446100   
     66. A(C   5,C   1,H  20)          119.9765         0.351105   
     67. A(C   2,C   1,C   5)          120.0910         0.430374   
     68. A(C   2,C   1,H  20)          119.9292         0.350737   
     69. A(C   3,C   2,H  21)          119.6619         0.351715   
     70. A(C   1,C   2,C   3)          120.0758         0.431072   
     71. A(C   1,C   2,H  21)          120.2598         0.350811   
     72. A(C   2,C   3,C   4)          119.7922         0.429016   
     73. A(C   4,C   3,H  24)          120.4692         0.349291   
     74. A(C   2,C   3,H  24)          119.7336         0.351769   
     75. A(P   0,C   4,C   3)          118.3369         0.431105   
     76. A(P   0,C   4,C   6)          121.4278         0.432266   
     77. A(C   3,C   4,C   6)          120.1129         0.426952   
     78. A(C   1,C   5,C   6)          120.2721         0.430950   
     79. A(C   6,C   5,H  22)          119.4934         0.351247   
     80. A(C   1,C   5,H  22)          120.2339         0.351174   
     81. A(C   4,C   6,H  23)          120.5029         0.350654   
     82. A(C   5,C   6,H  23)          119.8597         0.351789   
     83. A(C   4,C   6,C   5)          119.6351         0.429569   
     84. A(C  12,C   7,H  34)          120.8780         0.350655   
     85. A(C   8,C   7,H  34)          119.5363         0.351722   
     86. A(C   8,C   7,C  12)          119.5795         0.429744   
     87. A(C   7,C   8,H  33)          119.5300         0.351275   
     88. A(C   9,C   8,H  33)          120.2120         0.351088   
     89. A(C   7,C   8,C   9)          120.2574         0.430891   
     90. A(C  10,C   9,H  32)          119.9362         0.350784   
     91. A(C   8,C   9,H  32)          119.9475         0.351018   
     92. A(C   8,C   9,C  10)          120.1153         0.430342   
     93. A(C   9,C  10,H  31)          120.2487         0.350849   
     94. A(C  11,C  10,H  31)          119.6952         0.351669   
     95. A(C   9,C  10,C  11)          120.0543         0.431105   
     96. A(C  10,C  11,C  12)          119.7610         0.429291   
     97. A(C  10,C  11,H  30)          120.0670         0.351614   
     98. A(C  12,C  11,H  30)          120.1712         0.349406   
     99. A(P   0,C  12,C   7)          122.6555         0.432325   
    100. A(C   7,C  12,C  11)          120.2288         0.427393   
    101. A(P   0,C  12,C  11)          117.1157         0.431348   
    102. A(C  14,C  13,H  26)          119.6141         0.351279   
    103. A(C  14,C  13,C  16)          120.1539         0.430878   
    104. A(C  16,C  13,H  26)          120.2320         0.351122   
    105. A(C  13,C  14,C  15)          119.4789         0.429887   
    106. A(C  15,C  14,H  25)          120.6552         0.350676   
    107. A(C  13,C  14,H  25)          119.8647         0.351594   
    108. A(C  14,C  15,C  18)          120.4951         0.427641   
    109. A(P   0,C  15,C  18)          118.2005         0.433605   
    110. A(P   0,C  15,C  14)          121.2848         0.434679   
    111. A(C  17,C  16,H  27)          119.8733         0.350599   
    112. A(C  13,C  16,H  27)          119.9018         0.351032   
    113. A(C  13,C  16,C  17)          120.2238         0.430108   
    114. A(C  16,C  17,C  18)          120.0671         0.431182   
    115. A(C  18,C  17,H  28)          119.7310         0.351945   
    116. A(C  16,C  17,H  28)          120.2019         0.350686   
    117. A(C  15,C  18,C  17)          119.5752         0.429694   
    118. A(C  15,C  18,H  29)          120.3640         0.349628   
    119. A(C  17,C  18,H  29)          120.0583         0.352025   
    120. A(P   0,C  35,C  36)          116.4066         0.432237   
    121. A(C  36,C  35,C  40)          119.5157         0.410395   
    122. A(P   0,C  35,C  40)          124.0724         0.432772   
    123. A(C  35,C  36,C  37)          132.0120         0.415296   
    124. A(C  37,C  36,N  44)          107.6512         0.417758   
    125. A(C  35,C  36,N  44)          120.3258         0.412316   
    126. A(C  36,C  37,C  38)          107.1514         0.421641   
    127. A(C  38,C  37,H  52)          126.6328         0.349074   
    128. A(C  36,C  37,H  52)          126.2096         0.348408   
    129. A(C  39,C  38,H  53)          126.1223         0.352588   
    130. A(C  37,C  38,H  53)          126.7926         0.348648   
    131. A(C  37,C  38,C  39)          107.0802         0.427557   
    132. A(C  38,C  39,N  44)          109.3053         0.428998   
    133. A(H  19,C  39,N  44)          120.7672         0.349790   
    134. A(H  19,C  39,C  38)          129.9274         0.352625   
    135. A(C  41,C  40,N  45)          107.2450         0.415719   
    136. A(C  35,C  40,N  45)          118.8551         0.411663   
    137. A(C  35,C  40,C  41)          133.7623         0.414942   
    138. A(C  40,C  41,H  51)          126.6057         0.348432   
    139. A(C  42,C  41,H  51)          126.0125         0.350100   
    140. A(C  40,C  41,C  42)          107.3307         0.421162   
    141. A(C  43,C  42,H  49)          126.1717         0.352739   
    142. A(C  41,C  42,H  49)          126.6751         0.348949   
    143. A(C  41,C  42,C  43)          107.1486         0.428172   
    144. A(N  45,C  43,H  50)          120.7291         0.349970   
    145. A(C  42,C  43,H  50)          129.9666         0.352804   
    146. A(C  42,C  43,N  45)          109.3043         0.429420   
    147. A(C  39,N  44,B  46)          126.2841         0.394883   
    148. A(C  36,N  44,B  46)          124.3148         0.390030   
    149. A(C  36,N  44,C  39)          108.8117         0.420006   
    150. A(C  43,N  45,B  46)          125.2135         0.394482   
    151. A(C  40,N  45,B  46)          125.6530         0.388375   
    152. A(C  40,N  45,C  43)          108.9710         0.419030   
    153. A(F  47,B  46,F  48)          108.1827         0.417403   
    154. A(N  45,B  46,F  48)          110.4613         0.392020   
    155. A(N  44,B  46,F  48)          110.7819         0.392607   
    156. A(N  45,B  46,F  47)          110.5542         0.389320   
    157. A(N  44,B  46,F  47)          110.3484         0.389902   
    158. A(N  44,B  46,N  45)          106.5269         0.366644   
    159. D(H  21,C   2,C   1,H  20)      0.2607         0.025129   
    160. D(H  21,C   2,C   1,C   5)   -179.0797         0.025129   
    161. D(C   3,C   2,C   1,C   5)      0.3573         0.025129   
    162. D(C   3,C   2,C   1,H  20)    179.6977         0.025129   
    163. D(C   4,C   3,C   2,H  21)   -179.7270         0.025951   
    164. D(H  24,C   3,C   2,C   1)   -178.3604         0.025951   
    165. D(H  24,C   3,C   2,H  21)      1.0800         0.025951   
    166. D(C   4,C   3,C   2,C   1)      0.8326         0.025951   
    167. D(C   6,C   4,P   0,C  15)   -124.2278         0.010000   
    168. D(P   0,C   4,C   3,C   2)   -177.7207         0.023760   
    169. D(C   6,C   4,P   0,C  12)    118.3833         0.010000   
    170. D(C   3,C   4,P   0,C  12)    -65.6353         0.010000   
    171. D(C   3,C   4,P   0,C  15)     51.7536         0.010000   
    172. D(C   3,C   4,P   0,C  35)    174.1163         0.010000   
    173. D(C   6,C   4,C   3,C   2)     -1.6847         0.023760   
    174. D(P   0,C   4,C   3,H  24)      1.4662         0.023760   
    175. D(C   6,C   4,C   3,H  24)    177.5022         0.023760   
    176. D(H  22,C   5,C   1,H  20)     -0.3307         0.025462   
    177. D(H  22,C   5,C   1,C   2)    179.0094         0.025462   
    178. D(C   6,C   5,C   1,C   2)     -0.7035         0.025462   
    179. D(C   6,C   5,C   1,H  20)    179.9564         0.025462   
    180. D(H  23,C   6,C   5,H  22)     -0.3989         0.025528   
    181. D(C   4,C   6,C   5,H  22)   -179.8624         0.025528   
    182. D(C   4,C   6,C   5,C   1)     -0.1474         0.025528   
    183. D(H  23,C   6,C   5,C   1)    179.3162         0.025528   
    184. D(H  23,C   6,C   4,P   0)     -2.2088         0.024519   
    185. D(H  23,C   6,C   4,C   3)   -178.1198         0.024519   
    186. D(C   5,C   6,C   4,C   3)      1.3403         0.024519   
    187. D(C   5,C   6,C   4,P   0)    177.2512         0.024519   
    188. D(C   9,C   8,C   7,C  12)     -0.1332         0.025559   
    189. D(C   9,C   8,C   7,H  34)   -179.2377         0.025559   
    190. D(H  33,C   8,C   7,H  34)      0.4974         0.025559   
    191. D(H  33,C   8,C   7,C  12)    179.6019         0.025559   
    192. D(H  32,C   9,C   8,C   7)    179.8977         0.025389   
    193. D(H  32,C   9,C   8,H  33)      0.1645         0.025389   
    194. D(C  10,C   9,C   8,H  33)   -179.4631         0.025389   
    195. D(C  10,C   9,C   8,C   7)      0.2701         0.025389   
    196. D(H  31,C  10,C   9,H  32)     -0.0211         0.025178   
    197. D(H  31,C  10,C   9,C   8)    179.6066         0.025178   
    198. D(C  11,C  10,C   9,H  32)   -179.5395         0.025178   
    199. D(C  11,C  10,C   9,C   8)      0.0882         0.025178   
    200. D(H  30,C  11,C  10,H  31)     -0.4108         0.025924   
    201. D(H  30,C  11,C  10,C   9)    179.1103         0.025924   
    202. D(C  12,C  11,C  10,H  31)    179.9014         0.025924   
    203. D(C  12,C  11,C  10,C   9)     -0.5775         0.025924   
    204. D(C   7,C  12,C  11,H  30)   -178.9725         0.023963   
    205. D(C   7,C  12,C  11,C  10)      0.7150         0.023963   
    206. D(P   0,C  12,C  11,H  30)      0.9553         0.023963   
    207. D(C  11,C  12,C   7,H  34)    178.7330         0.024607   
    208. D(C  11,C  12,C   7,C   8)     -0.3592         0.024607   
    209. D(P   0,C  12,C   7,H  34)     -1.1905         0.024607   
    210. D(P   0,C  12,C   7,C   8)    179.7172         0.024607   
    211. D(C  11,C  12,P   0,C  15)     81.2325         0.010000   
    212. D(P   0,C  12,C  11,C  10)   -179.3573         0.023963   
    213. D(C  11,C  12,P   0,C   4)   -163.6373         0.010000   
    214. D(C   7,C  12,P   0,C  35)    138.2379         0.010000   
    215. D(C   7,C  12,P   0,C  15)    -98.8417         0.010000   
    216. D(C   7,C  12,P   0,C   4)     16.2885         0.010000   
    217. D(H  25,C  14,C  13,H  26)      0.3573         0.025540   
    218. D(H  25,C  14,C  13,C  16)   -179.7113         0.025540   
    219. D(C  15,C  14,C  13,H  26)    179.9673         0.025540   
    220. D(C  15,C  14,C  13,C  16)     -0.1013         0.025540   
    221. D(C  14,C  15,P   0,C   4)   -137.8244         0.010000   
    222. D(C  18,C  15,C  14,C  13)      0.7412         0.024721   
    223. D(P   0,C  15,C  14,H  25)      1.9877         0.024721   
    224. D(P   0,C  15,C  14,C  13)   -177.6191         0.024721   
    225. D(C  18,C  15,P   0,C  12)    162.5785         0.010000   
    226. D(C  18,C  15,P   0,C   4)     43.7788         0.010000   
    227. D(C  14,C  15,P   0,C  35)    101.0098         0.010000   
    228. D(C  18,C  15,C  14,H  25)   -179.6520         0.024721   
    229. D(C  14,C  15,P   0,C  12)    -19.0248         0.010000   
    230. D(H  27,C  16,C  13,C  14)    179.9226         0.025398   
    231. D(C  17,C  16,C  13,H  26)    179.4678         0.025398   
    232. D(H  27,C  16,C  13,H  26)     -0.1464         0.025398   
    233. D(C  17,C  16,C  13,C  14)     -0.4632         0.025398   
    234. D(H  28,C  17,C  16,H  27)     -0.0331         0.025009   
    235. D(H  28,C  17,C  16,C  13)   -179.6475         0.025009   
    236. D(C  18,C  17,C  16,H  27)   -179.9956         0.025009   
    237. D(C  18,C  17,C  16,C  13)      0.3900         0.025009   
    238. D(H  29,C  18,C  17,C  16)    179.6697         0.026155   
    239. D(C  15,C  18,C  17,H  28)   -179.7174         0.026155   
    240. D(C  15,C  18,C  17,C  16)      0.2453         0.026155   
    241. D(H  29,C  18,C  15,C  14)    179.7634         0.024016   
    242. D(H  29,C  18,C  15,P   0)     -1.8267         0.024016   
    243. D(C  17,C  18,C  15,C  14)     -0.8140         0.024016   
    244. D(H  29,C  18,C  17,H  28)     -0.2929         0.026155   
    245. D(C  17,C  18,C  15,P   0)    177.5960         0.024016   
    246. D(C  40,C  35,P   0,C  12)    119.5711         0.010000   
    247. D(C  40,C  35,P   0,C   4)   -118.5783         0.010000   
    248. D(C  36,C  35,P   0,C  15)   -179.9820         0.010000   
    249. D(C  36,C  35,P   0,C  12)    -59.5841         0.010000   
    250. D(C  36,C  35,P   0,C   4)     62.2665         0.010000   
    251. D(N  44,C  36,C  35,C  40)      8.5203         0.019033   
    252. D(N  44,C  36,C  35,P   0)   -172.2838         0.019033   
    253. D(C  37,C  36,C  35,C  40)   -170.1142         0.019033   
    254. D(C  37,C  36,C  35,P   0)      9.0817         0.019033   
    255. D(H  52,C  37,C  36,N  44)   -179.1986         0.022167   
    256. D(H  52,C  37,C  36,C  35)     -0.4355         0.022167   
    257. D(C  38,C  37,C  36,N  44)     -0.0675         0.022167   
    258. D(C  38,C  37,C  36,C  35)    178.6957         0.022167   
    259. D(H  53,C  38,C  37,H  52)      0.0225         0.022698   
    260. D(H  53,C  38,C  37,C  36)   -179.1039         0.022698   
    261. D(C  39,C  38,C  37,H  52)    179.2539         0.022698   
    262. D(C  39,C  38,C  37,C  36)      0.1275         0.022698   
    263. D(N  44,C  39,C  38,H  53)    179.0952         0.026108   
    264. D(N  44,C  39,C  38,C  37)     -0.1428         0.026108   
    265. D(H  19,C  39,C  38,H  53)     -1.0026         0.026108   
    266. D(H  19,C  39,C  38,C  37)    179.7593         0.026108   
    267. D(N  45,C  40,C  35,C  36)     -9.1778         0.019304   
    268. D(N  45,C  40,C  35,P   0)    171.6917         0.019304   
    269. D(C  41,C  40,C  35,C  36)    165.9421         0.019304   
    270. D(C  41,C  40,C  35,P   0)    -13.1884         0.019304   
    271. D(H  51,C  41,C  40,N  45)    177.4435         0.021635   
    272. D(H  51,C  41,C  40,C  35)      1.9180         0.021635   
    273. D(C  42,C  41,C  40,N  45)     -0.0718         0.021635   
    274. D(C  42,C  41,C  40,C  35)   -175.5973         0.021635   
    275. D(H  49,C  42,C  41,H  51)      1.6846         0.022951   
    276. D(H  49,C  42,C  41,C  40)    179.2188         0.022951   
    277. D(C  43,C  42,C  41,H  51)   -177.5693         0.022951   
    278. D(C  43,C  42,C  41,C  40)     -0.0352         0.022951   
    279. D(H  50,C  43,C  42,H  49)      0.8282         0.026259   
    280. D(H  50,C  43,C  42,C  41)   -179.9130         0.026259   
    281. D(N  45,C  43,C  42,H  49)   -179.1263         0.026259   
    282. D(N  45,C  43,C  42,C  41)      0.1325         0.026259   
    283. D(B  46,N  44,C  36,C  35)      9.3811         0.025639   
    284. D(C  39,N  44,C  36,C  37)     -0.0201         0.025639   
    285. D(C  39,N  44,C  36,C  35)   -178.9554         0.025639   
    286. D(B  46,N  44,C  39,C  38)    171.5587         0.029811   
    287. D(B  46,N  44,C  39,H  19)     -8.3540         0.029811   
    288. D(C  36,N  44,C  39,C  38)      0.1021         0.029811   
    289. D(C  36,N  44,C  39,H  19)   -179.8106         0.029811   
    290. D(B  46,N  44,C  36,C  37)   -171.6836         0.025639   
    291. D(B  46,N  45,C  43,H  50)      4.2843         0.029989   
    292. D(B  46,N  45,C  43,C  42)   -175.7562         0.029989   
    293. D(C  40,N  45,C  43,H  50)    179.8601         0.029989   
    294. D(C  40,N  45,C  43,C  42)     -0.1805         0.029989   
    295. D(B  46,N  45,C  40,C  41)    175.7065         0.024795   
    296. D(B  46,N  45,C  40,C  35)     -7.9820         0.024795   
    297. D(C  43,N  45,C  40,C  41)      0.1550         0.024795   
    298. D(C  43,N  45,C  40,C  35)    176.4665         0.024795   
    299. D(F  48,B  46,N  45,C  40)    142.4487         0.010172   
    300. D(F  47,B  46,N  45,C  43)     77.0079         0.010172   
    301. D(F  47,B  46,N  45,C  40)    -97.8413         0.010172   
    302. D(N  44,B  46,N  45,C  43)   -163.0825         0.010172   
    303. D(N  44,B  46,N  45,C  40)     22.0684         0.010172   
    304. D(F  48,B  46,N  44,C  36)   -142.7245         0.010335   
    305. D(F  47,B  46,N  44,C  39)    -72.7055         0.010335   
    306. D(F  47,B  46,N  44,C  36)     97.4918         0.010335   
    307. D(N  45,B  46,N  44,C  39)    167.2518         0.010335   
    308. D(N  45,B  46,N  44,C  36)    -22.5509         0.010335   
    -----------------------------------------------------------------

Number of atoms                         .... 54
Number of degrees of freedom            .... 308


         *************************************************************
         *                GEOMETRY OPTIMIZATION CYCLE   1            *
         *************************************************************
---------------------------------
CARTESIAN COORDINATES (ANGSTROEM)
---------------------------------
  P     -6.345047   10.892781    1.430506
  C     -7.654768   13.828070    4.735365
  C     -7.361940   14.292291    3.448079
  C     -6.979881   13.394189    2.450978
  C     -6.907090   12.019307    2.739246
  C     -7.558061   12.464649    5.027508
  C     -7.183276   11.556210    4.034049
  C     -8.518433   11.836720   -0.118103
  C     -9.393121   11.749929   -1.204213
  C     -9.282142   10.695563   -2.115608
  C     -8.296824    9.717621   -1.941173
  C     -7.423349    9.791487   -0.855483
  C     -7.529569   10.857725    0.054153
  C     -3.247771   12.152912   -0.939203
  C     -4.483826   11.647757   -0.527510
  C     -4.786718   11.595525    0.839901
  C     -2.323009   12.604047    0.007267
  C     -2.633369   12.561453    1.371798
  C     -3.864574   12.060638    1.792845
  H     -8.720901    6.041473    4.049912
  H     -7.948933   14.534060    5.515670
  H     -7.422081   15.358950    3.220686
  H     -7.770425   12.101754    6.035650
  H     -7.099155   10.496014    4.272032
  H     -6.726685   13.765460    1.455690
  H     -5.199947   11.292670   -1.269736
  H     -3.009209   12.194134   -2.004262
  H     -1.357183   12.997092   -0.319174
  H     -1.912885   12.919338    2.110586
  H     -4.104331   12.022486    2.857387
  H     -6.663220    9.020041   -0.710975
  H     -8.212270    8.889375   -2.648359
  H     -9.969923   10.631718   -2.962240
  H    -10.167373   12.509468   -1.333988
  H     -8.623488   12.657011    0.592401
  C     -6.164820    9.230925    2.050550
  C     -7.357723    8.598889    2.539370
  C     -8.721141    8.975764    2.482433
  C     -9.463656    7.948626    3.106226
  C     -8.551398    6.981698    3.527469
  C     -4.925546    8.509839    2.067563
  C     -3.662152    8.715177    1.455296
  C     -2.856727    7.599715    1.769006
  C     -3.626964    6.744849    2.555446
  N     -7.286772    7.373486    3.184772
  N     -4.868109    7.289272    2.732441
  B     -5.978103    6.697005    3.615786
  F     -5.717243    6.955964    4.981125
  F     -6.055059    5.306914    3.440690
  H     -1.830157    7.427835    1.448389
  H     -3.372313    5.784081    2.999977
  H     -3.377079    9.550160    0.825876
  H     -9.119070    9.879957    2.028711
  H    -10.545223    7.906616    3.226718

----------------------------
CARTESIAN COORDINATES (A.U.)
----------------------------
  NO LB      ZA    FRAG     MASS         X           Y           Z
   0 P    15.0000    0    30.974  -11.990401   20.584373    2.703265
   1 C     6.0000    0    12.011  -14.465414   26.131265    8.948543
   2 C     6.0000    0    12.011  -13.912051   27.008516    6.515924
   3 C     6.0000    0    12.011  -13.190064   25.311349    4.631677
   4 C     6.0000    0    12.011  -13.052508   22.713198    5.176424
   5 C     6.0000    0    12.011  -14.282665   23.554772    9.500613
   6 C     6.0000    0    12.011  -13.574424   21.838072    7.623249
   7 C     6.0000    0    12.011  -16.097506   22.368160   -0.223183
   8 C     6.0000    0    12.011  -17.750427   22.204147   -2.275634
   9 C     6.0000    0    12.011  -17.540706   20.211686   -3.997920
  10 C     6.0000    0    12.011  -15.678726   18.363642   -3.668286
  11 C     6.0000    0    12.011  -14.028097   18.503228   -1.616628
  12 C     6.0000    0    12.011  -14.228823   20.518127    0.102334
  13 C     6.0000    0    12.011   -6.137398   22.965675   -1.774836
  14 C     6.0000    0    12.011   -8.473204   22.011071   -0.996850
  15 C     6.0000    0    12.011   -9.045585   21.912367    1.587182
  16 C     6.0000    0    12.011   -4.389851   23.818198    0.013732
  17 C     6.0000    0    12.011   -4.976347   23.737706    2.592322
  18 C     6.0000    0    12.011   -7.302986   22.791302    3.387986
  19 H     1.0000    0     1.008  -16.480115   11.416729    7.653224
  20 H     1.0000    0     1.008  -15.021306   27.465394   10.423105
  21 H     1.0000    0     1.008  -14.025700   29.024210    6.086215
  22 H     1.0000    0     1.008  -14.683974   22.869001   11.405726
  23 H     1.0000    0     1.008  -13.415458   19.834591    8.072971
  24 H     1.0000    0     1.008  -12.711592   26.012950    2.750855
  25 H     1.0000    0     1.008   -9.826476   21.340053   -2.399454
  26 H     1.0000    0     1.008   -5.686581   23.043573   -3.787506
  27 H     1.0000    0     1.008   -2.564704   24.560945   -0.603152
  28 H     1.0000    0     1.008   -3.614830   24.414011    3.988430
  29 H     1.0000    0     1.008   -7.756062   22.719207    5.399679
  30 H     1.0000    0     1.008  -12.591661   17.045408   -1.343549
  31 H     1.0000    0     1.008  -15.518941   16.798484   -5.004672
  32 H     1.0000    0     1.008  -18.840424   20.091036   -5.597822
  33 H     1.0000    0     1.008  -19.213550   23.639468   -2.520873
  34 H     1.0000    0     1.008  -16.296031   23.918285    1.119476
  35 C     6.0000    0    12.011  -11.649821   17.443921    3.874977
  36 C     6.0000    0    12.011  -13.904082   16.249546    4.798713
  37 C     6.0000    0    12.011  -16.480568   16.961736    4.691119
  38 C     6.0000    0    12.011  -17.883719   15.020727    5.869916
  39 C     6.0000    0    12.011  -16.159800   13.193497    6.665950
  40 C     6.0000    0    12.011   -9.307933   16.081265    3.907128
  41 C     6.0000    0    12.011   -6.920464   16.469298    2.750111
  42 C     6.0000    0    12.011   -5.398432   14.361380    3.342937
  43 C     6.0000    0    12.011   -6.853968   12.745918    4.829093
  44 N     7.0000    0    14.007  -13.770003   13.933870    6.018346
  45 N     7.0000    0    14.007   -9.199392   13.774728    5.163564
  46 B     5.0000    0    10.810  -11.296978   12.655506    6.832846
  47 F     9.0000    0    18.998  -10.804024   13.144867    9.412962
  48 F     9.0000    0    18.998  -11.442403   10.028614    6.501962
  49 H     1.0000    0     1.008   -3.458496   14.036574    2.737059
  50 H     1.0000    0     1.008   -6.372748   10.930329    5.669136
  51 H     1.0000    0     1.008   -6.381755   18.047186    1.560679
  52 H     1.0000    0     1.008  -17.232546   18.670413    3.833708
  53 H     1.0000    0     1.008  -19.927584   14.941338    6.097613

--------------------------------
INTERNAL COORDINATES (ANGSTROEM)
--------------------------------
 P      0   0   0     0.000000000000     0.00000000     0.00000000
 C      1   0   0     4.610138731145     0.00000000     0.00000000
 C      2   1   0     1.399412299876    59.49153040     0.00000000
 C      3   2   1     1.395265614409   120.07583844     0.67055907
 C      4   3   2     1.406661800437   119.79222165     0.83257116
 C      2   1   3     1.397718867888    60.60022177   179.68893884
 C      6   2   1     1.397384795186   120.27209128   358.98671853
 C      1   2   3     2.830692780739    87.80715507   303.29688254
 C      8   1   2     1.397228448271   152.27594119   193.07795049
 C      9   8   1     1.398085574194   120.25741084     0.19513992
 C     10   9   8     1.399160369323   120.11528230     0.27012167
 C     11  10   9     1.395399387370   120.05432895     0.08815894
 C      8   1   2     1.402125959722    32.69711208   193.60653299
 C      1   2   3     4.098361749195   115.68556272    42.55036962
 C     14   1   2     1.397320389989    18.18948680   230.36926534
 C     15  14   1     1.401529119567   119.47894186     2.87685511
 C     14   1   2     1.398039113882   101.98579214    47.73699999
 C     17  14   1     1.400029724145   120.22380518   358.58680309
 C     18  17  14     1.394259806400   120.06708170     0.39003833
 H      7   6   2     5.725108709897   123.51862468   206.70093862
 H      2   1   3     1.092625689247   178.97909034   304.32441668
 H      3   2   1     1.092284726968   120.25983864   181.23355081
 H      6   2   1     1.092310040587   120.23390137   178.69962904
 H      7   6   2     1.089829521084   119.85974241   179.31616639
 H      4   3   2     1.092039172355   119.73361053   181.63959486
 H     15  14   1     1.090786535980   119.86469888   183.26688240
 H     14   1   2     1.092227584405   137.77372556   226.60432777
 H     17  14   1     1.092642504585   119.90178221   178.97257869
 H     18  17  14     1.092239702452   120.20191411   180.35253995
 H     19  18  17     1.091874179262   120.05831921   179.66973628
 H     12  11  10     1.092614508674   120.06703184   179.11025822
 H     11  10   9     1.092360875016   120.24871875   179.60656440
 H     10   9   8     1.092659228701   119.94745842   179.89773166
 H      9   8   1     1.092339520072   119.53002368   179.93022529
 H      8   1   2     1.090289241851    88.18658493    12.58423908
 C      1   2   3     1.782890690213   111.89393506   175.79749626
 C     36   1   2     1.435769305560   116.40657288    63.89665216
 C     37  36   1     1.415692141574   132.01197568     9.08167478
 C     38  37  36     1.412606717676   107.15135444   178.69566467
 C     20   7   6     1.088899310108    28.97008108   138.97172905
 C     36   1   2     1.433895368577   124.07239927   243.05185041
 C     41  36   1     1.418872588491   133.76225682   346.81160834
 C     42  41  36     1.411162049533   107.33073069   184.40268969
 C     43  42  41     1.393753230969   107.14863468   359.96480617
 N     40  20   7     1.367559349035   120.76715771    79.27161251
 N     44  43  42     1.366807974199   109.30428347     0.13248202
 B     45  40  20     1.534931321532   126.28412191   351.64603271
 F     47  45  40     1.413950828297   110.34839106   287.29451934
 F     47  45  40     1.403187299368   110.78191879    47.07814273
 H     43  42  41     1.089120793631   126.67509332   179.21878843
 H     44  43  42     1.088820764215   129.96664860   180.08696758
 H     42  41  36     1.083804257449   126.60572904     1.91799917
 H     38  37  36     1.087095573825   126.20955034   359.56450010
 H     39  38  37     1.089068673481   126.79255706   180.89611719

---------------------------
INTERNAL COORDINATES (A.U.)
---------------------------
 P      0   0   0     0.000000000000     0.00000000     0.00000000
 C      1   0   0     8.711899641248     0.00000000     0.00000000
 C      2   1   0     2.644505995207    59.49153040     0.00000000
 C      3   2   1     2.636669895310   120.07583844     0.67055907
 C      4   3   2     2.658205565875   119.79222165     0.83257116
 C      2   1   3     2.641305872523    60.60022177   179.68893884
 C      6   2   1     2.640674566607   120.27209128   358.98671853
 C      1   2   3     5.349234124864    87.80715507   303.29688254
 C      8   1   2     2.640379113756   152.27594119   193.07795049
 C      9   8   1     2.641998847012   120.25741084     0.19513992
 C     10   9   8     2.644029915456   120.11528230     0.27012167
 C     11  10   9     2.636922689570   120.05432895     0.08815894
 C      8   1   2     2.649634069136    32.69711208   193.60653299
 C      1   2   3     7.744781303717   115.68556272    42.55036962
 C     14   1   2     2.640552858424    18.18948680   230.36926534
 C     15  14   1     2.648506204698   119.47894186     2.87685511
 C     14   1   2     2.641911049746   101.98579214    47.73699999
 C     17  14   1     2.645672757984   120.22380518   358.58680309
 C     18  17  14     2.634769193631   120.06708170     0.39003833
 H      7   6   2    10.818887548633   123.51862468   206.70093862
 H      2   1   3     2.064763319564   178.97909034   304.32441668
 H      3   2   1     2.064118994234   120.25983864   181.23355081
 H      6   2   1     2.064166830041   120.23390137   178.69962904
 H      7   6   2     2.059479327511   119.85974241   179.31616639
 H      4   3   2     2.063654963265   119.73361053   181.63959486
 H     15  14   1     2.061287823570   119.86469888   183.26688240
 H     14   1   2     2.064011010440   137.77372556   226.60432777
 H     17  14   1     2.064795095948   119.90178221   178.97257869
 H     18  17  14     2.064033910230   120.20191411   180.35253995
 H     19  18  17     2.063343171506   120.05831921   179.66973628
 H     12  11  10     2.064742191344   120.06703184   179.11025822
 H     11  10   9     2.064262893191   120.24871875   179.60656440
 H     10   9   8     2.064826699947   119.94745842   179.89773166
 H      9   8   1     2.064222538196   119.53002368   179.93022529
 H      8   1   2     2.060348073858    88.18658493    12.58423908
 C      1   2   3     3.369175131221   111.89393506   175.79749626
 C     36   1   2     2.713210778998   116.40657288    63.89665216
 C     37  36   1     2.675270437520   132.01197568     9.08167478
 C     38  37  36     2.669439831344   107.15135444   178.69566467
 C     20   7   6     2.057721483521    28.97008108   138.97172905
 C     36   1   2     2.709669551309   124.07239927   243.05185041
 C     41  36   1     2.681280611176   133.76225682   346.81160834
 C     42  41  36     2.666709804201   107.33073069   184.40268969
 C     43  42  41     2.633811904800   107.14863468   359.96480617
 N     40  20   7     2.584312641559   120.76715771    79.27161251
 N     44  43  42     2.582892748897   109.30428347     0.13248202
 B     45  40  20     2.900599832072   126.28412191   351.64603271
 F     47  45  40     2.671979832313   110.34839106   287.29451934
 F     47  45  40     2.651639710402   110.78191879    47.07814273
 H     43  42  41     2.058140026722   126.67509332   179.21878843
 H     44  43  42     2.057573053293   129.96664860   180.08696758
 H     42  41  36     2.048093229357   126.60572904     1.91799917
 H     38  37  36     2.054312915927   126.20955034   359.56450010
 H     39  38  37     2.058041533911   126.79255706   180.89611719

---------------------
BASIS SET INFORMATION
---------------------
There are 6 groups of distinct atoms

 Group   1 Type P   : 10s7p1d contracted to 4s3p1d pattern {5311/511/1}
 Group   2 Type C   : 7s4p1d contracted to 3s2p1d pattern {511/31/1}
 Group   3 Type H   : 4s1p contracted to 2s1p pattern {31/1}
 Group   4 Type N   : 7s4p1d contracted to 3s2p1d pattern {511/31/1}
 Group   5 Type B   : 7s4p1d contracted to 3s2p1d pattern {511/31/1}
 Group   6 Type F   : 7s4p1d contracted to 3s2p1d pattern {511/31/1}

Atom   0P    basis set group =>   1
Atom   1C    basis set group =>   2
Atom   2C    basis set group =>   2
Atom   3C    basis set group =>   2
Atom   4C    basis set group =>   2
Atom   5C    basis set group =>   2
Atom   6C    basis set group =>   2
Atom   7C    basis set group =>   2
Atom   8C    basis set group =>   2
Atom   9C    basis set group =>   2
Atom  10C    basis set group =>   2
Atom  11C    basis set group =>   2
Atom  12C    basis set group =>   2
Atom  13C    basis set group =>   2
Atom  14C    basis set group =>   2
Atom  15C    basis set group =>   2
Atom  16C    basis set group =>   2
Atom  17C    basis set group =>   2
Atom  18C    basis set group =>   2
Atom  19H    basis set group =>   3
Atom  20H    basis set group =>   3
Atom  21H    basis set group =>   3
Atom  22H    basis set group =>   3
Atom  23H    basis set group =>   3
Atom  24H    basis set group =>   3
Atom  25H    basis set group =>   3
Atom  26H    basis set group =>   3
Atom  27H    basis set group =>   3
Atom  28H    basis set group =>   3
Atom  29H    basis set group =>   3
Atom  30H    basis set group =>   3
Atom  31H    basis set group =>   3
Atom  32H    basis set group =>   3
Atom  33H    basis set group =>   3
Atom  34H    basis set group =>   3
Atom  35C    basis set group =>   2
Atom  36C    basis set group =>   2
Atom  37C    basis set group =>   2
Atom  38C    basis set group =>   2
Atom  39C    basis set group =>   2
Atom  40C    basis set group =>   2
Atom  41C    basis set group =>   2
Atom  42C    basis set group =>   2
Atom  43C    basis set group =>   2
Atom  44N    basis set group =>   4
Atom  45N    basis set group =>   4
Atom  46B    basis set group =>   5
Atom  47F    basis set group =>   6
Atom  48F    basis set group =>   6
Atom  49H    basis set group =>   3
Atom  50H    basis set group =>   3
Atom  51H    basis set group =>   3
Atom  52H    basis set group =>   3
Atom  53H    basis set group =>   3
---------------------------------
AUXILIARY/J BASIS SET INFORMATION
---------------------------------
There are 6 groups of distinct atoms

 Group   1 Type P   : 14s5p5d2f1g contracted to 8s4p3d1f1g pattern {71111111/2111/311/2/1}
 Group   2 Type C   : 12s5p4d2f1g contracted to 6s4p3d1f1g pattern {711111/2111/211/2/1}
 Group   3 Type H   : 5s2p1d contracted to 3s1p1d pattern {311/2/1}
 Group   4 Type N   : 12s5p4d2f1g contracted to 6s4p3d1f1g pattern {711111/2111/211/2/1}
 Group   5 Type B   : 12s5p4d2f1g contracted to 6s4p3d1f1g pattern {711111/2111/211/2/1}
 Group   6 Type F   : 12s5p4d2f1g contracted to 6s4p3d1f1g pattern {711111/2111/211/2/1}

Atom   0P    basis set group =>   1
Atom   1C    basis set group =>   2
Atom   2C    basis set group =>   2
Atom   3C    basis set group =>   2
Atom   4C    basis set group =>   2
Atom   5C    basis set group =>   2
Atom   6C    basis set group =>   2
Atom   7C    basis set group =>   2
Atom   8C    basis set group =>   2
Atom   9C    basis set group =>   2
Atom  10C    basis set group =>   2
Atom  11C    basis set group =>   2
Atom  12C    basis set group =>   2
Atom  13C    basis set group =>   2
Atom  14C    basis set group =>   2
Atom  15C    basis set group =>   2
Atom  16C    basis set group =>   2
Atom  17C    basis set group =>   2
Atom  18C    basis set group =>   2
Atom  19H    basis set group =>   3
Atom  20H    basis set group =>   3
Atom  21H    basis set group =>   3
Atom  22H    basis set group =>   3
Atom  23H    basis set group =>   3
Atom  24H    basis set group =>   3
Atom  25H    basis set group =>   3
Atom  26H    basis set group =>   3
Atom  27H    basis set group =>   3
Atom  28H    basis set group =>   3
Atom  29H    basis set group =>   3
Atom  30H    basis set group =>   3
Atom  31H    basis set group =>   3
Atom  32H    basis set group =>   3
Atom  33H    basis set group =>   3
Atom  34H    basis set group =>   3
Atom  35C    basis set group =>   2
Atom  36C    basis set group =>   2
Atom  37C    basis set group =>   2
Atom  38C    basis set group =>   2
Atom  39C    basis set group =>   2
Atom  40C    basis set group =>   2
Atom  41C    basis set group =>   2
Atom  42C    basis set group =>   2
Atom  43C    basis set group =>   2
Atom  44N    basis set group =>   4
Atom  45N    basis set group =>   4
Atom  46B    basis set group =>   5
Atom  47F    basis set group =>   6
Atom  48F    basis set group =>   6
Atom  49H    basis set group =>   3
Atom  50H    basis set group =>   3
Atom  51H    basis set group =>   3
Atom  52H    basis set group =>   3
Atom  53H    basis set group =>   3


           ************************************************************
           *        Program running with 4 parallel MPI-processes     *
           *              working on a common directory               *
           ************************************************************
------------------------------------------------------------------------------
                             ORCA STARTUP CALCULATIONS
                           -- RI-GTO INTEGRALS CHOSEN --
------------------------------------------------------------------------------
------------------------------------------------------------------------------
                   ___                                                        
                  /   \      - P O W E R E D   B Y -                         
                 /     \                                                     
                 |  |  |   _    _      __       _____    __    __             
                 |  |  |  | |  | |    /  \     |  _  \  |  |  /  |          
                  \  \/   | |  | |   /    \    | | | |  |  | /  /          
                 / \  \   | |__| |  /  /\  \   | |_| |  |  |/  /          
                |  |  |   |  __  | /  /__\  \  |    /   |      \           
                |  |  |   | |  | | |   __   |  |    \   |  |\   \          
                \     /   | |  | | |  |  |  |  | |\  \  |  | \   \       
                 \___/    |_|  |_| |__|  |__|  |_| \__\ |__|  \__/        
                                                                              
                      - O R C A' S   B I G   F R I E N D -                    
                                      &                                       
                       - I N T E G R A L  F E E D E R -                       
                                                                              
 v1 FN, 2020, v2 2021, v3 2022-2024                                           
------------------------------------------------------------------------------


----------------------
SHARK INTEGRAL PACKAGE
----------------------

Number of atoms                             ...     54
Number of basis functions                   ...    571
Number of shells                            ...    263
Maximum angular momentum                    ...      2
Integral batch strategy                     ... SHARK/LIBINT Hybrid
RI-J (if used) integral strategy            ... SPLIT-RIJ (Revised 2003 algorithm where possible)
Printlevel                                  ...      1
Contraction scheme used                     ... SEGMENTED contraction
Prescreening option                         ... SCHWARTZ
   Thresh                                   ... 2.500e-11
   Tcut                                     ... 2.500e-12
   Tpresel                                  ... 2.500e-12 
Coulomb Range Separation                    ... NOT USED
Exchange Range Separation                   ... NOT USED
Multipole approximations                    ... NOT USED
Finite Nucleus Model                        ... NOT USED
CABS basis                                  ... NOT available
Auxiliary Coulomb fitting basis             ... AVAILABLE
   # of basis functions in Aux-J            ...   1850
   # of shells in Aux-J                     ...    602
   Maximum angular momentum in Aux-J        ...      4
Auxiliary J/K fitting basis                 ... NOT available
Auxiliary Correlation fitting basis         ... NOT available
Auxiliary 'external' fitting basis          ... NOT available

Checking pre-screening integrals            ... done (  0.0 sec) Dimension = 263
   => SHARK Basis and OBASIS are compatible. Storing Pre-screening
Shell pair information
Shell pair cut-off parameter TPreSel        ...   2.5e-12
Total number of shell pairs                 ...     34716
Shell pairs after pre-screening             ...     24419
Total number of primitive shell pairs       ...    129280
Primitive shell pairs kept                  ...     54995
          la=0 lb=0:   7311 shell pairs
          la=1 lb=0:   9144 shell pairs
          la=1 lb=1:   2911 shell pairs
          la=2 lb=0:   2941 shell pairs
          la=2 lb=1:   1844 shell pairs
          la=2 lb=2:    268 shell pairs

Checking whether 4 symmetric matrices of dimension 571 fit in memory
:Max Core in MB      =   4096.00
 MB in use           =     33.24
 MB left             =   4062.76
 MB needed           =      4.98
 Data fit in memory  = YES
Calculating RI/J V-Matrix + Cholesky decomp.... done (  0.1 sec)
Calculating Nuclear repulsion               ... done (  0.0 sec) ENN=   3535.621473744837 Eh

Diagonalization of the overlap matrix:
Smallest eigenvalue                        ... 2.598e-04
Time for diagonalization                   ...    0.037 sec
Threshold for overlap eigenvalues          ... 1.000e-07
Number of eigenvalues below threshold      ... 0
Time for construction of square roots      ...    0.021 sec
Total time needed                          ...    0.061 sec

-------------------
DFT GRID GENERATION
-------------------

General Integration Accuracy     IntAcc      ... 4.388
Radial Grid Type                 RadialGrid  ... OptM3 with GC (2021)
Angular Grid (max. ang.)         AngularGrid ... 4 (Lebedev-302)
Angular grid pruning method      GridPruning ... 4 (adaptive)
Weight generation scheme         WeightScheme... mBecke (2022)
Basis function cutoff            BFCut       ... 1.0000e-11
Integration weight cutoff        WCut        ... 1.0000e-14
Partially contracted basis set               ... off
Rotationally invariant grid construction     ... off
Angular grids for H and He will be reduced by one unit

Total number of grid points                  ...   263720
Total number of batches                      ...     4152
Average number of points per batch           ...       63
Average number of grid points per atom       ...     4884

--------------------
COSX GRID GENERATION
--------------------

GRIDX 1
-------
General Integration Accuracy     IntAcc      ... 3.816
Radial Grid Type                 RadialGrid  ... OptM3 with GC (2021)
Angular Grid (max. ang.)         AngularGrid ... 1 (Lebedev-50)
Angular grid pruning method      GridPruning ... 4 (adaptive)
Weight generation scheme         WeightScheme... mBecke (2022)
Basis function cutoff            BFCut       ... 1.0000e-11
Integration weight cutoff        WCut        ... 1.0000e-14
Partially contracted basis set               ... on
Rotationally invariant grid construction     ... off
Angular grids for H and He will be reduced by one unit

Total number of grid points                  ...    34329
Total number of batches                      ...      286
Average number of points per batch           ...      120
Average number of grid points per atom       ...      636
UseSFitting                                  ... on

GRIDX 2
-------
General Integration Accuracy     IntAcc      ... 4.020
Radial Grid Type                 RadialGrid  ... OptM3 with GC (2021)
Angular Grid (max. ang.)         AngularGrid ... 2 (Lebedev-110)
Angular grid pruning method      GridPruning ... 4 (adaptive)
Weight generation scheme         WeightScheme... mBecke (2022)
Basis function cutoff            BFCut       ... 1.0000e-11
Integration weight cutoff        WCut        ... 1.0000e-14
Partially contracted basis set               ... on
Rotationally invariant grid construction     ... off
Angular grids for H and He will be reduced by one unit

Total number of grid points                  ...    72523
Total number of batches                      ...      594
Average number of points per batch           ...      122
Average number of grid points per atom       ...     1343
UseSFitting                                  ... on

GRIDX 3
-------
General Integration Accuracy     IntAcc      ... 4.338
Radial Grid Type                 RadialGrid  ... OptM3 with GC (2021)
Angular Grid (max. ang.)         AngularGrid ... 3 (Lebedev-194)
Angular grid pruning method      GridPruning ... 4 (adaptive)
Weight generation scheme         WeightScheme... mBecke (2022)
Basis function cutoff            BFCut       ... 1.0000e-11
Integration weight cutoff        WCut        ... 1.0000e-14
Partially contracted basis set               ... on
Rotationally invariant grid construction     ... off
Angular grids for H and He will be reduced by one unit

Total number of grid points                  ...   158749
Total number of batches                      ...     1264
Average number of points per batch           ...      125
Average number of grid points per atom       ...     2940
UseSFitting                                  ... on
Grids setup in   4.0 sec
Initializing property integral containers    ... done (  0.0 sec)

SHARK setup successfully completed in   4.5 seconds

Maximum memory used throughout the entire STARTUP-calculation: 90.3 MB


           ************************************************************
           *        Program running with 4 parallel MPI-processes     *
           *              working on a common directory               *
           ************************************************************
-------------------------------------------------------------------------------
                                 ORCA GUESS
                   Start orbitals & Density for SCF / CASSCF
-------------------------------------------------------------------------------

------------
SCF SETTINGS
------------
Hamiltonian:
 Density Functional     Method          .... DFT(GTOs)
 Exchange Functional    Exchange        .... B88
   X-Alpha parameter    XAlpha          ....  0.666667
   Becke's b parameter  XBeta           ....  0.004200
 Correlation Functional Correlation     .... LYP
 LDA part of GGA corr.  LDAOpt          .... VWN-5
 Gradients option       PostSCFGGA      .... off
 Hybrid DFT is turned on
   Fraction HF Exchange ScalHFX         ....  0.200000
   Scaling of DF-GGA-X  ScalDFX         ....  0.720000
   Scaling of DF-GGA-C  ScalDFC         ....  0.810000
   Scaling of DF-LDA-C  ScalLDAC        ....  1.000000
   Perturbative correction              ....  0.000000
   NL short-range parameter             ....  4.800000
 RI-approximation to the Coulomb term is turned on
   Number of AuxJ basis functions       .... 1850
   RIJ-COSX (HFX calculated with COS-X)).... on


General Settings:
 Integral files         IntName         .... TPP_Bodipy_T1
 Hartree-Fock type      HFTyp           .... UHF
 Total Charge           Charge          ....    1
 Multiplicity           Mult            ....    3
 Number of Electrons    NEL             ....  234
 Basis Dimension        Dim             ....  571
 Nuclear Repulsion      ENuc            ....   3535.6214737448 Eh

Convergence Acceleration:
 AO-DIIS                CNVDIIS         .... off
 MO-DIIS                CNVKDIIS        .... off
 Trust-Rad. Augm. Hess. CNVTRAH         .... on
   Max. Number of Micro iterations      ....    24
   Max. Number of Macro iterations      ....   500
   Number of Davidson start vectors     ....     2
   Converg. threshold    (grad. norm)   ....   1.000e-05
   Grad. Scal. Fac. for Micro threshold ....   0.100
   Minimum threshold for Micro iter.    ....   1.000e-02
   NR start threshold (gradient norm)   ....   1.000e-04
   Initial trust radius                 ....   0.400
   Minimum AH scaling param. (alpha)    ....   1.000
   Maximum AH scaling param. (alpha)    .... 1000.000
   Quad. conv. algorithm                .... NR
   White noise on init. David. guess    .... on
   Maximum white noise                  ....   0.010
   Pseudo random numbers                .... off
   Inactive MOs                         .... canonical
   Orbital update algorithm             .... Taylor
   Preconditioner                       .... Diag
   Full preconditioner red. dimension   ....   250
 SOSCF                 CNVSOSCF           .... off
 Level Shifting         CNVShift        .... off
 Zerner damping         CNVZerner       .... off
 Static damping         CNVDamp         .... off

SCF Procedure:
 Maximum # iterations   MaxIter         ....   500
 SCF integral mode      SCFMode         .... Direct
   Integral package                     .... SHARK and LIBINT hybrid scheme
 Reset frequency        DirectResetFreq ....    20
 Integral Threshold     Thresh          ....  2.500e-11 Eh
 Primitive CutOff       TCut            ....  2.500e-12 Eh

Convergence Tolerance:
 Convergence Check Mode ConvCheckMode   .... Total+1el-Energy
 Convergence forced     ConvForced      .... 0
 Energy Change          TolE            ....  1.000e-08 Eh
 1-El. energy change                    ....  1.000e-05 Eh

------------------------------
INITIAL GUESS: MODEL POTENTIAL
------------------------------
Loading Hartree-Fock densities                     ... done
Calculating cut-offs                               ... done
Initializing the effective Hamiltonian             ... done
Setting up the integral package (SHARK)            ... done
Starting the Coulomb interaction                   ... done (   0.7 sec)
Making the grid                                    ... done (   0.6 sec)
Mapping shells                                     ... done
Starting the XC term evaluation                    ... done (   0.3 sec)
  promolecular density results
     # of electrons  =    234.999244744
     EX              =   -204.855101386
     EC              =     -8.129572380
     EX+EC           =   -212.984673765
Transforming the Hamiltonian                       ... done (   0.0 sec)
Diagonalizing the Hamiltonian                      ... done (   0.0 sec)
Back transforming the eigenvectors                 ... done (   0.0 sec)
Now organizing SCF variables                       ... done
                      ------------------
                      INITIAL GUESS DONE (   1.7 sec)
                      ------------------
             **** ENERGY FILE WAS UPDATED (TPP_Bodipy_T1.en.tmp) ****
Finished Guess after   2.2 sec
Maximum memory used throughout the entire GUESS-calculation: 45.2 MB


           ************************************************************
           *        Program running with 4 parallel MPI-processes     *
           *              working on a common directory               *
           ************************************************************

-------------------------------------------------------------------------------------------
                                      ORCA LEAN-SCF
                              memory conserving SCF solver
-------------------------------------------------------------------------------------------

--------------------
CPCM SOLVATION MODEL
--------------------
CPCM parameters:
  Epsilon                                         ...      78.3550
  Refrac                                          ...       1.3328
  Rsolv                                           ...       1.3000
  Surface type                                    ... GAUSSIAN VDW
  Discretization scheme                           ... Constant charge density
    Threshold for H atoms                         ...       5.0000 (charges/Ang^2)
    Threshold for non-H atoms                     ...       5.0000 (charges/Ang^2)
  Epsilon function type                           ...         CPCM
Solvent:                                          ... WATER
SMD-CDS solvent descriptors:
  Soln                                            ...       1.3328
  Soln25                                          ...       1.3323
  Sola                                            ...       0.0000
  Solb                                            ...       0.0000
  Solg                                            ...       0.0000
  Solc                                            ...       0.0000
  Solh                                            ...       0.0000
Radii:
  Scheme                                          ... Element-dependent radii
  Radius for P  used is    4.0062 Bohr (=   2.1200 Ang.)
  Radius for C  used is    3.4960 Bohr (=   1.8500 Ang.)
  Radius for H  used is    2.2677 Bohr (=   1.2000 Ang.)
  Radius for N  used is    3.5716 Bohr (=   1.8900 Ang.)
  Radius for B  used is    3.6283 Bohr (=   1.9200 Ang.)
  Radius for F  used is    3.2692 Bohr (=   1.7300 Ang.)
Calculating surface                               ...        done! (  0.0s)
Cavity surface points                             ...         4132
Cavity Volume                                     ...    3029.3507
Cavity Surface-area                               ...    1594.3400
Calculating surface distance matrix               ...        done! (  0.1s)
Performing Cholesky decomposition & store         ...        done! (  0.6s)
Overall time for CPCM initialization              ...                 0.8s

 --------------------------------------------------------------------------------------------
   Iter.        energy            ||Error||_2        Shift      TRadius  Mac/Mic        Rej.
 --------------------------------------------------------------------------------------------
    0      -1714.379053561191     1.032208e+00                     0.400 (TRAH MAcro)   No
WARNING : small    HOMO - LUMO gap : (op =  beta) 0.006017
WARNING : small    HOMO - LUMO gap : (op =  beta) 0.006017
    0     dE    -5.012765e-01     1.878530e-01    -6.1036e-01      0.400 (TRAH MIcro)
    0     dE    -5.116399e-01     3.972295e-02    -7.3368e-01      0.400 (TRAH MIcro)
    0     dE    -5.121507e-01     6.251647e-03    -7.4040e-01      0.400 (TRAH MIcro)
[...]
      py      :     0.000262
      dz2     :     0.001075  d :     0.000374
      dxz     :    -0.000305
      dyz     :    -0.000068
      dx2y2   :    -0.000073
      dxy     :    -0.000255

 47 F s       :     0.000020  s :     0.000020
      pz      :     0.000445  p :     0.000692
      px      :     0.000079
      py      :     0.000168
      dz2     :     0.000008  d :     0.000009
      dxz     :     0.000002
      dyz     :     0.000000
      dx2y2   :    -0.000001
      dxy     :    -0.000001

 48 F s       :    -0.000011  s :    -0.000011
      pz      :    -0.000255  p :     0.000237
      px      :     0.000222
      py      :     0.000270
      dz2     :     0.000001  d :     0.000009
      dxz     :     0.000001
      dyz     :     0.000001
      dx2y2   :     0.000005
      dxy     :     0.000000

 49 H s       :    -0.000638  s :    -0.000638
      pz      :     0.000079  p :     0.000022
      px      :     0.000079
      py      :    -0.000136

 50 H s       :    -0.011905  s :    -0.011905
      pz      :     0.005612  p :     0.010276
      px      :     0.001474
      py      :     0.003191

 51 H s       :    -0.005601  s :    -0.005601
      pz      :     0.002467  p :     0.004734
      px      :     0.000843
      py      :     0.001424

 52 H s       :    -0.005768  s :    -0.005768
      pz      :     0.003300  p :     0.004892
      px      :     0.000096
      py      :     0.001496

 53 H s       :    -0.000654  s :    -0.000654
      pz      :     0.000108  p :     0.000025
      px      :     0.000049
      py      :    -0.000131



                      *****************************
                      * MAYER POPULATION ANALYSIS *
                      *****************************

  NA   - Mulliken gross atomic population
  ZA   - Total nuclear charge
  QA   - Mulliken gross atomic charge
  VA   - Mayer's total valence
  BVA  - Mayer's bonded valence
  FA   - Mayer's free valence

  ATOM       NA         ZA         QA         VA         BVA        FA
  0 P     14.3417    15.0000     0.6583     4.2559     4.2545     0.0015
  1 C      5.9713     6.0000     0.0287     3.7997     3.7997     0.0000
  2 C      5.9996     6.0000     0.0004     3.8495     3.8495     0.0000
  3 C      5.9663     6.0000     0.0337     3.8480     3.8480     0.0000
  4 C      6.1387     6.0000    -0.1387     3.8121     3.8120     0.0002
  5 C      5.9963     6.0000     0.0037     3.8492     3.8492     0.0000
  6 C      5.9767     6.0000     0.0233     3.8895     3.8894     0.0000
  7 C      5.9613     6.0000     0.0387     3.8700     3.8700     0.0000
  8 C      5.9977     6.0000     0.0023     3.8504     3.8504     0.0000
  9 C      5.9717     6.0000     0.0283     3.7961     3.7961     0.0000
 10 C      5.9942     6.0000     0.0058     3.8402     3.8402     0.0000
 11 C      5.9595     6.0000     0.0405     3.8337     3.8337     0.0000
 12 C      6.1558     6.0000    -0.1558     3.8001     3.8000     0.0001
 13 C      5.9909     6.0000     0.0091     3.8388     3.8388     0.0000
 14 C      5.9651     6.0000     0.0349     3.8581     3.8581     0.0000
 15 C      6.1761     6.0000    -0.1761     3.8167     3.8166     0.0000
 16 C      5.9686     6.0000     0.0314     3.7975     3.7975     0.0000
 17 C      5.9950     6.0000     0.0050     3.8432     3.8432     0.0000
 18 C      5.9541     6.0000     0.0459     3.8292     3.8292     0.0000
 19 H      0.9306     1.0000     0.0694     0.9930     0.9924     0.0006
 20 H      0.9752     1.0000     0.0248     0.9793     0.9793     0.0000
 21 H      0.9765     1.0000     0.0235     0.9802     0.9802     0.0000
 22 H      0.9789     1.0000     0.0211     0.9803     0.9803     0.0000
 23 H      0.9631     1.0000     0.0369     0.9864     0.9864     0.0000
 24 H      0.9622     1.0000     0.0378     0.9912     0.9912     0.0000
 25 H      0.9699     1.0000     0.0301     0.9938     0.9938     0.0000
 26 H      0.9776     1.0000     0.0224     0.9803     0.9803     0.0000
 27 H      0.9739     1.0000     0.0261     0.9793     0.9793     0.0000
 28 H      0.9757     1.0000     0.0243     0.9801     0.9801     0.0000
 29 H      0.9688     1.0000     0.0312     0.9911     0.9911     0.0000
 30 H      0.9653     1.0000     0.0347     0.9900     0.9900     0.0000
 31 H      0.9769     1.0000     0.0231     0.9800     0.9800     0.0000
 32 H      0.9752     1.0000     0.0248     0.9793     0.9793     0.0000
 33 H      0.9793     1.0000     0.0207     0.9800     0.9800     0.0000
 34 H      0.9788     1.0000     0.0212     1.0018     1.0018     0.0000
 35 C      6.1811     6.0000    -0.1811     3.6207     3.5419     0.0789
 36 C      5.9010     6.0000     0.0990     4.0042     3.9465     0.0576
 37 C      5.9968     6.0000     0.0032     3.8072     3.7679     0.0393
 38 C      5.9907     6.0000     0.0093     3.7892     3.7879     0.0012
 39 C      5.8466     6.0000     0.1534     3.8364     3.6647     0.1718
 40 C      5.8706     6.0000     0.1294     4.0072     3.9510     0.0563
 41 C      5.9996     6.0000     0.0004     3.7971     3.7578     0.0393
 42 C      5.9976     6.0000     0.0024     3.7836     3.7824     0.0012
 43 C      5.8510     6.0000     0.1490     3.8360     3.6670     0.1689
 44 N      7.1267     7.0000    -0.1267     3.3977     3.3965     0.0012
 45 N      7.1315     7.0000    -0.1315     3.3922     3.3910     0.0012
 46 B      4.8632     5.0000     0.1368     4.2038     4.2038     0.0000
 47 F      9.2150     9.0000    -0.2150     1.2437     1.2437     0.0000
 48 F      9.2236     9.0000    -0.2236     1.2192     1.2192     0.0000
 49 H      0.9642     1.0000     0.0358     0.9895     0.9895     0.0000
 50 H      0.9319     1.0000     0.0681     0.9940     0.9934     0.0006
 51 H      0.9730     1.0000     0.0270     0.9998     0.9997     0.0001
 52 H      0.9655     1.0000     0.0345     1.0031     1.0029     0.0001
 53 H      0.9622     1.0000     0.0378     0.9898     0.9898     0.0000

  Mayer bond orders larger than 0.100000
B(  0-P ,  4-C ) :   0.9885 B(  0-P , 12-C ) :   0.9817 B(  0-P , 15-C ) :   0.9905 
B(  0-P , 35-C ) :   1.0476 B(  1-C ,  2-C ) :   1.3595 B(  1-C ,  5-C ) :   1.3738 
B(  1-C , 20-H ) :   0.9916 B(  2-C ,  3-C ) :   1.3985 B(  2-C , 21-H ) :   0.9930 
B(  3-C ,  4-C ) :   1.3308 B(  3-C , 24-H ) :   0.9843 B(  4-C ,  6-C ) :   1.3681 
B(  5-C ,  6-C ) :   1.3902 B(  5-C , 22-H ) :   0.9890 B(  6-C , 23-H ) :   0.9792 
B(  7-C ,  8-C ) :   1.3955 B(  7-C , 12-C ) :   1.3595 B(  7-C , 34-H ) :   0.9805 
B(  8-C ,  9-C ) :   1.3679 B(  8-C , 33-H ) :   0.9904 B(  9-C , 10-C ) :   1.3622 
B(  9-C , 32-H ) :   0.9914 B( 10-C , 11-C ) :   1.3922 B( 10-C , 31-H ) :   0.9932 
B( 11-C , 12-C ) :   1.3275 B( 11-C , 30-H ) :   0.9892 B( 13-C , 14-C ) :   1.3791 
B( 13-C , 16-C ) :   1.3715 B( 13-C , 26-H ) :   0.9906 B( 14-C , 15-C ) :   1.3634 
B( 14-C , 25-H ) :   0.9852 B( 15-C , 18-C ) :   1.3280 B( 16-C , 17-C ) :   1.3576 
B( 16-C , 27-H ) :   0.9909 B( 17-C , 18-C ) :   1.3972 B( 17-C , 28-H ) :   0.9931 
B( 18-C , 29-H ) :   0.9932 B( 19-H , 39-C ) :   0.9820 B( 35-C , 36-C ) :   1.1819 
B( 35-C , 40-C ) :   1.2069 B( 36-C , 37-C ) :   1.1803 B( 36-C , 44-N ) :   1.2822 
B( 37-C , 38-C ) :   1.4913 B( 37-C , 52-H ) :   0.9903 B( 38-C , 39-C ) :   1.2260 
B( 38-C , 53-H ) :   1.0034 B( 39-C , 44-N ) :   1.2329 B( 40-C , 41-C ) :   1.1724 
B( 40-C , 45-N ) :   1.2777 B( 41-C , 42-C ) :   1.4858 B( 41-C , 51-H ) :   1.0032 
B( 42-C , 43-C ) :   1.2252 B( 42-C , 49-H ) :   1.0032 B( 43-C , 45-N ) :   1.2355 
B( 43-C , 50-H ) :   0.9815 B( 44-N , 46-B ) :   0.8109 B( 45-N , 46-B ) :   0.8124 
B( 46-B , 47-F ) :   1.2523 B( 46-B , 48-F ) :   1.1832 

-------
TIMINGS
-------

Total SCF time: 0 days 0 hours 3 min 18 sec 

Total time                  ....     198.183 sec
Sum of individual times     ....     196.465 sec  ( 99.1%)

SCF preparation             ....       1.654 sec  (  0.8%)
Fock matrix formation       ....     193.354 sec  ( 97.6%)
  Split-RI-J                ....      19.394 sec  ( 10.0% of F)
  Chain of spheres X        ....     138.810 sec  ( 71.8% of F)
  XC integration            ....      12.967 sec  (  6.7% of F)
    XC Preparation          ....       0.000 sec  (  0.0% of XC)
    Basis function eval.    ....       1.588 sec  ( 12.2% of XC)
    Density eval.           ....       4.141 sec  ( 31.9% of XC)
    XC-Functional eval.     ....       0.145 sec  (  1.1% of XC)
    XC-Potential eval.      ....       5.502 sec  ( 42.4% of XC)
  CPCM terms                ....      22.073 sec  ( 11.4% of F)
Diagonalization             ....       0.000 sec  (  0.0%)
Density matrix formation    ....       0.092 sec  (  0.0%)
Total Energy calculation    ....       0.006 sec  (  0.0%)
Population analysis         ....       0.260 sec  (  0.1%)
Orbital Transformation      ....       1.072 sec  (  0.5%)
Orbital Orthonormalization  ....       0.000 sec  (  0.0%)
NR solution                 ....       0.027 sec  (  0.0%)
TRAH solution               ....       0.027 sec  (  0.0%)
Finished LeanSCF after 198.7 sec

Maximum memory used throughout the entire LEANSCF-calculation: 106.6 MB


-------------------------------------------------------------------------------
                          DFT DISPERSION CORRECTION                            
                                                                               
                              DFTD3 V3.1  Rev 1                                
                          USING Becke-Johnson damping                          
-------------------------------------------------------------------------------
The B3LYP functional is recognized
Active option DFTDOPT                   ...         4   

molecular C6(AA) [au] = 40514.862824 


            DFT-D V3
 parameters
 s6 scaling factor         :     1.0000 
 a1 scaling factor         :     0.3981 
 s8 scaling factor         :     1.9889 
 a2 scaling factor         :     4.4211 
 ad hoc parameters k1-k3   :    16.0000     1.3333    -4.0000 

 Edisp/kcal,au: -97.524779928015  -0.155415612921 
 E6   /kcal   : -44.768708329 
 E8   /kcal   : -52.756071599 
 % E8         :  54.095042960 

-------------------------   ----------------
Dispersion correction           -0.155415613
-------------------------   ----------------


-------------------------   --------------------
FINAL SINGLE POINT ENERGY     -1715.087845306858
-------------------------   --------------------

                                *** OPTIMIZATION RUN DONE ***



           ************************************************************
           *        Program running with 4 parallel MPI-processes     *
           *              working on a common directory               *
           ************************************************************

------------------------------------------------------------------------------
                              ORCA PROPERTY CALCULATIONS
------------------------------------------------------------------------------

GBWName                                 ... TPP_Bodipy_T1.gbw
Number of atoms                         ...     54
Number of basis functions               ...    571
Max core memory                         ...   4096 MB

Electric properties:
Dipole moment                           ... YES
Quadrupole moment                       ...  NO
Static polarizability (Dipole/Dipole)   ...  NO
Static polarizability (Dipole/Quad.)    ...  NO
Static polarizability (Quad./Quad.)     ...  NO
Static polarizability (Velocity)        ...  NO
Static hyperpolarizability              ...  NO

Atomic electric properties:
Dipole moment                           ...  NO
Quadrupole moment                       ...  NO
Static polarizability                   ...  NO

Choice of electric origin               ... Center of mass
Position of electric origin             ...   -11.831132    18.942762     3.519071

General magnetic properties:
Magnetizability                         ...  NO

EPR properties:
g-Tensor (aka g-matrix)                 ...  NO
Zero-Field splitting spin-orbit         ...  NO
Zero-field splitting spin-spin          ...  NO
Hyperfine couplings                     ...  NO (   0 nuclei)
Quadrupole couplings                    ...  NO (   0 nuclei)
Contact density                         ...  NO (   0 nuclei)

NMR properties:
Chemical shifts                         ...  NO (   0 nuclei)
Spin-rotation constants                 ...  NO (   0 nuclei)
Spin-spin couplings                     ...  NO (   0 nuclei,    0 pairs)

Choice of magnetic origin               ... GIAO
Position of magnetic origin             ...     0.000000     0.000000     0.000000

Properties with geometric perturbations:
SCF Hessian                             ...  NO
IR spectrum                             ...  NO
VCD spectrum                            ...  NO
X-ray spectroscopy properties:
SCF XES/XAS/RIXS spectra                ...  NO

SCF SOC stabilization energy            ...  NO
Diagonal Born-Oppenheimer correction    ...  NO

-------------
DIPOLE MOMENT
-------------

Method             : SCF
Type of density    : Electron Density
Multiplicity       :   3
Irrep              :   0
Energy             : -1714.9324296939371379 Eh
Basis              : AO
                                X                 Y                 Z
Electronic contribution:      2.300600212     -22.022773924      12.459272813
Nuclear contribution   :     -2.692812178      24.852419858     -14.779330451
                        -----------------------------------------
Total Dipole Moment    :     -0.392211965       2.829645934      -2.320057638
                        -----------------------------------------
Magnitude (a.u.)       :      3.680135022
Magnitude (Debye)      :      9.354159838



--------------------
Rotational spectrum 
--------------------
 
Rotational constants in cm-1:             0.005086             0.003907             0.003539 
Rotational constants in MHz :           152.485040           117.122679           106.091668 

Dipole components along the rotational axes: 
x,y,z [a.u.] :    -3.570798    -0.004391     0.890380 
x,y,z [Debye]:    -9.076247    -0.011160     2.263166 

 

Dipole moment calculation done in   0.0 sec 

Maximum memory used throughout the entire PROP-calculation: 49.1 MB

--------------------------------
SUGGESTED CITATIONS FOR THIS RUN
--------------------------------

Below you find a list of papers that are relevant to this ORCA run
We neither can nor want to force you to cite these papers, but we appreciate if you do
You receive ORCA, which is the product of decades of hard work by many enthusiastic individuals, for free
The only thing we kindly ask in return is that you cite our papers,
We deeply appreciate it, if you show your appreciation for ORCA by not just citing the generic ORCA reference.

Please note that relegating all ORCA citations to the supporting information does *not* help us.
SI sections are not indexed - citations you put there will not count into any citation statistics
But we need these citations in order to attract the funding resources that allow us to do what we are doing

Therefore, if you are a happy ORCA user, please consider citing a few of the papers listed below in the main body of your paper

In addition to the list printed below, the program has created the file TPP_Bodipy_T1.bibtex that contains the list in bibtex format
You can import this file easily into all common literature databanks and citation aid programs


List of essential papers. We consider these as the minimum necessary citations

  1. Neese, F.
     Software update: the ORCA program system, version 6.0
     WIRES Comput. Molec. Sci. 2025 15(1), e70019
     doi.org/10.1002/wcms.7019

List of papers to cite with high priority. The work reported in these papers was absolutely
necessary for this run to complete.
Our perspective: the developers of density functionals and basis sets usually get cited in chemistry papers
Good! But without the algorithms to do something with them, the functionals or basis sets would not do anything.
Hence, in our opinion, the algorithm design and method developments papers are equally worthy of getting cited

  1. Neese, F.
     An improvement of the resolution of the identity approximation for the formation of the Coulomb matrix
     J. Comp. Chem. 2003 24(14), 1740-1747
     doi.org/10.1002/jcc.10318
  2. Neese, F.; Wennmohs, F.; Hansen, A.; Becker, U.
     Efficient, approximate and parallel Hartree-Fock and hybrid DFT calculations. A 'chain-of-spheres' algorithm for the Hartree-Fock exchange
     Chem. Phys. 2009 356(1-3), 98-109
     doi.org/10.1016/j.chemphys.2008.10.036
  3. Grimme, S.; Antony, J.; Ehrlich, S.; Krieg, H.
     A consistent and accurate ab initio parametrization of density functional dispersion correction (DFT-D) for the 94 elements H-Pu
     J. Chem. Phys. 2010 132 , 154104
     doi.org/10.1063/1.3382344
  4. Grimme, S.; Ehrlich, S.; Goerigk, L.
     Effect of the damping function in dispersion corrected density functional theory
     J. Comput. Chem. 2011 32(7), 1456-1465
     doi.org/10.1002/jcc.21759
  5. Garcia-Rates, M.; Neese, F.
     Effect of the Solute Cavity on the Solvation Energy and its Derivatives within the Framework of the Gaussian Charge Scheme
     J. Comput. Chem. 2020 41 , 922-939
     doi.org/10.1002/jcc.26139
  6. Helmich-Paris, B.; de Souza, B.; Neese, F.; Izsák, R.
     An improved chain of spheres for exchange algorithm
     J. Chem. Phys. 2021 155(10), 104109
     doi.org/10.1063/5.0058766
  7. Helmich-Paris, B.
     A trust-region augmented Hessian implementation for restricted and unrestricted Hartree–Fock and Kohn–Sham methods
     J. Chem. Phys. 2021 154 , 164104
     doi.org/10.1063/5.0040798
  8. Neese, F.
     The SHARK Integral Generation and Digestion System
     J. Comp. Chem. 2022 44(3), 381
     doi.org/10.1002/jcc.26942

List of suggested additional citations. These are papers that are important in the 'surrounding' of 
of this run, or papers that preceded the highly important papers. If you like your results we are grateful for a citation.

  1. Izsak, R.; Neese, F.
     An overlap fitted chain of spheres exchange method
     J. Chem. Phys. 2011 135 , 144105
     doi.org/10.1063/1.3646921
  2. Izsak, R.; Hansen, A.; Neese, F.
     The resolution of identity and chain of spheres approximations for the LPNO-CCSD singles Fock term
     Molec. Phys. 2012 110 , 2413-2417
     doi.org/10.1080/00268976.2012.687466
  3. Neese, F.
     The ORCA program system
     WIRES Comput. Molec. Sci. 2012 2(1), 73-78
     doi.org/10.1002/wcms.81
  4. Izsak, R.; Neese, F.; Klopper, W.
     Robust fitting techniques in the chain of spheres approximation to the Fock exchange: The role of the complementary space
     J. Chem. Phys. 2013 139 , 
     doi.org/10.1063/1.4819264
  5. Neese, F.
     Software update: the ORCA program system, version 4.0
     WIRES Comput. Molec. Sci. 2018 8(1), 1-6
     doi.org/10.1002/wcms.1327
  6. Neese, F.; Wennmohs, F.; Becker, U.; Riplinger, C.
     The ORCA quantum chemistry program package
     J. Chem. Phys. 2020 152(22), 224108
     doi.org/10.1063/5.0004608
  7. Neese, F.
     Software update: The ORCA program system—Version 5.0
     WIRES Comput. Molec. Sci. 2022 12(1), e1606
     doi.org/10.1002/wcms.1606

Timings for individual modules:

Sum of individual times          ...     5291.150 sec (=  88.186 min)
Startup calculation              ...       90.531 sec (=   1.509 min)   1.7 %
SCF iterations                   ...     3950.156 sec (=  65.836 min)  74.7 %
Property calculations            ...        0.571 sec (=   0.010 min)   0.0 %
SCF Gradient evaluation          ...     1249.346 sec (=  20.822 min)  23.6 %
Geometry relaxation              ...        0.545 sec (=   0.009 min)   0.0 %
                             ****ORCA TERMINATED NORMALLY****
TOTAL RUN TIME: 0 days 1 hours 28 minutes 19 seconds 202 msec
