
                                 *****************
                                 * O   R   C   A *
                                 *****************

                                            #,                                       
                                            ###                                      
                                            ####                                     
                                            #####                                    
                                            ######                                   
                                           ########,                                 
                                     ,,################,,,,,                         
                               ,,#################################,,                 
                          ,,##########################################,,             
                       ,#########################################, ''#####,          
                    ,#############################################,,   '####,        
                  ,##################################################,,,,####,       
                ,###########''''           ''''###############################       
              ,#####''   ,,,,##########,,,,          '''####'''          '####       
            ,##' ,,,,###########################,,,                        '##       
           ' ,,###''''                  '''############,,,                           
         ,,##''                                '''############,,,,        ,,,,,,###''
      ,#''                                            '''#######################'''  
     '                                                          ''''####''''         
             ,#######,   #######,   ,#######,      ##                                
            ,#'     '#,  ##    ##  ,#'     '#,    #''#        ,####,    ,#,          
            ##       ##  ##   ,#'  ##            #'  '#       #'       ,# #          
            ##       ##  #######   ##           ,######,      #####,      #          
            '#,     ,#'  ##    ##  '#,     ,#' ,#      #,     #,   #      #          
             '#######'   ##     ##  '#######'  #'      '#     '####' #    #          



                #########################################################
                #                        -***-                          #
                #          Department of theory and spectroscopy        #
                #                                                       #
                #                      Frank Neese                      #
                #                                                       #
                #     Directorship, Architecture, Infrastructure        #
                #                    SHARK, DRIVERS                     #
                #        Core code/Algorithms in most modules           #
                #                                                       #
                #        Max Planck Institute fuer Kohlenforschung      #
                #                Kaiser Wilhelm Platz 1                 #
                #                 D-45470 Muelheim/Ruhr                 #
                #                      Germany                          #
                #                                                       #
                #                  All rights reserved                  #
                #                        -***-                          #
                #########################################################


                         Program Version 6.1.0  -  RELEASE   -
                                (GIT: $679e74b$)
                          ($2025-06-10 18:02:51 +0200$)


 With contributions from (in alphabetic order):
[Max-Planck-Institut fuer Kohlenforschung]                               
  Daniel Aravena         : Magnetic Suceptibility                        
  Michael Atanasov       : Ab Initio Ligand Field Theory (pilot matlab implementation)
  Alexander A. Auer      : GIAO ZORA, VPT2 properties, NMR spectrum      
  Ute Becker             : All parallelization in ORCA, NUMFREQ, NUMCALC 
  Giovanni Bistoni       : ED, misc. LED, open-shell LED, HFLD           
  Dmytro Bykov           : pre 5.0 version of the SCF Hessian            
  Marcos Casanova-Páez   : Triplet and SCS-CIS(D). UHF-(DLPNO)-IP/EA/STEOM-CCSD. UHF-CVS-IP/STEOM-CCSD   
  Vijay G. Chilkuri      : MRCI spin determinant printing, contributions to CSF-ICE 
  Pauline Colinet        : FMM embedding                                 
  Dipayan Datta          : RHF DLPNO-CCSD density                        
  Achintya Kumar Dutta   : EOM-CC, STEOM-CC                              
  Nicolas Foglia         : Exact transition moments, OPA infrastructure, MCD improvements    
  Dmitry Ganyushin       : Spin-Orbit,Spin-Spin,Magnetic field MRCI      
  Miquel Garcia-Rates    : C-PCM and meta-GGA Hessian, CCSD/C-PCM, Gaussian charge scheme 
  Tiago L. C. Gouveia    : GS-ROHF, GS-ROCIS                             
  Yang Guo               : DLPNO-NEVPT2, F12-NEVPT2, CIM, IAO-localization        
  Andreas Hansen         : Spin unrestricted coupled pair/coupled cluster methods 
  Ingolf Harden          : AUTO-CI MPn and infrastructure                
  Benjamin Helmich-Paris : MC-RPA, TRAH-(SCF,CASSCF), AVAS, COSX integrals, SCF dyn. polar., MC-PDFT, srDFT 
  Lee Huntington         : MR-EOM, pCC                                   
  Robert Izsak           : Overlap fitted RIJCOSX, COSX-SCS-MP3, EOM     
  Riya Kayal             : Wick's Theorem for AUTO-CI, AUTO-CI UHF-CCSDT 
  Emily Kempfer          : AUTO-CI RHF CISDT and CCSDT, approximate NEVPT4
  Christian Kollmar      : KDIIS, OOCD, Brueckner-CCSD(T), CCSD density, CASPT2, CASPT2-K, improved NEVPT2 
  Axel Koslowski         : Symmetry handling                             
  Simone Kossmann        : meta-GGA functionals, TD-DFT gradient, OOMP2, (MP2 Hessian; deprecated post 5.0) 
  Lucas Lang             : DCDCAS, Hyperfine gauge corrections, ICE-SOC+SSC
  Marvin Lechner         : AUTO-CI (C++ implementation), FIC-MRCC        
  Spencer Leger          : CASSCF response                               
  Dagmar Lenk            : GEPOL surface, SMD, ORCA-2-JSON               
  Dimitrios Liakos       : Extrapolation schemes; Compound Job, Property file
  Dimitrios Manganas     : Further ROCIS development; embedding schemes. LFT, Crystal Embedding 
  Dimitrios Pantazis     : SARC Basis sets                               
  Anastasios Papadopoulos: AUTO-CI, single reference methods and gradients 
  Taras Petrenko         : pre 6.0 DFT Hessian and TD-DFT gradient,  ECA, NRVS 
  Petra Pikulova         : Analytic Raman intensities                    
  Peter Pinski           : DLPNO-MP2, DLPNO-MP2 Gradient                 
  Shashank Vittal Rao    : ES-AILFT, MagRelax                            
  Christoph Reimann      : Effective Core Potentials                     
  Marius Retegan         : Local ZFS, SOC                                
  Christoph Riplinger    : Optimizer, TS searches, QM/MM, DLPNO-CCSD(T), (RO)-DLPNO pert. Triples 
  Michael Roemelt        : Original ROCIS implementation, recursive CI coupling coefficients
  Masaaki Saitow         : Open-shell DLPNO-CCSD energy and density      
  Barbara Sandhoefer     : DKH picture change effects                    
  Yorick L. A. Schmerwitz: GMF and freeze-and-release deltaSCF, NEB S-IDPP initial path                    
  Kantharuban Sivalingam : CASSCF convergence/infrastructure, NEVPT2, NEVPT3, NEVPT4(SD), FIC-MRCI and CEPA variants
  Bernardo de Souza      : ESD, SOC TD-DFT                               
  Georgi L. Stoychev     : AutoAux, RI-MP2 NMR, DLPNO-MP2 response, X2C  
  Van Anh Tran           : RI-MP2 g-tensors                              
  Willem Van den Heuvel  : Paramagnetic NMR                              
  Zikuan Wang            : NOTCH, Electric field optimization            
  Frank Wennmohs         : Technical directorship and infrastructure     
  Hang Xu                : AUTO-CI-Response properties                   
                                                                         
[FACCTs GmbH]                                                            
  Markus Bursch, Nicolas Foglia, Miquel Garcia-Rates, Ingolf Harden, Hagen Neugebauer, Anastasios Papadopoulos, 
  Christoph Riplinger, Bernardo de Souza, Georgi L. Stoychev                                                    
                                                                 
  APM, various basis sets, CI-OPT, improved COSX, DLPNO-Multilevel,           
  DOCKER, DRACO, updates on ESD, Fragmentator, GOAT, IRC, LR-CPCM, L-BFGS, MBIS, meta-GGA TD-DFT gradient, ML-optimized integration grids, 
  MM, NACMEs, nearIR, NEB, NEB-TS, NL-DFT gradient (VV10), 2- and 3-layer-ONIOM, interface openCOSMO-RS, QMMM,   
  Crystal-QMMM, RESP, rigid body optimization, SF, symmetry and pop. for TD-DFT, various functionals, SOLVATOR                                   
                                                                         
[Other institutions]                                                     
  V. Asgeirsson          : NEB                                           
  Christoph Bannwarth    : sTDA-DFT, sTD-DFT, PBEh-3c, B97-3c, D3        
  Giovanni Bistoni       : ETS/NOCV, ADLD/ADEX, COVALED                  
  Martin Brehm           : Molecular dynamics                            
  Ronald Cardenas        : ETS/NOCV                                      
  Martina Colucci        : COVALED                                       
  Sebastian Ehlert       : rSCAN, r2SCAN, r2SCAN-3c, D4, dhf basis sets  
  Marvin Friede          : D4 for Fr, Ra, Ac-Lr                          
  Lars Goerigk           : TD-DFT with DH, B97 family of functionals     
  Stefan Grimme          : VdW corrections, initial TS optimization, DFT functionals, gCP, sTDA/sTD-DF 
  Waldemar Hujo          : DFT-NL                                        
  H. Jonsson             : NEB                                           
  Holger Kruse           : gCP                                           
  Marcel Mueller         : wB97X-3c, vDZP basis set                      
  Hagen Neugebauer       : wr2SCAN, Native XTB                           
  Gianluca Regni         : ADLD/ADEX                                     
  Tobias Risthaus        : pre 6.0 range-separated hybrid DFT and stability analysis
  Lukas Wittmann         : regularized MP2, r2SCAN double-hybrids, wr2SCAN        
                                                                         
We gratefully acknowledge several colleagues who have allowed us to      
interface, adapt or use parts of their codes:                            
  Ed Valeev, F. Pavosevic, A. Kumar             : LibInt (2-el integral package), F12 methods 
  Garnet Chan, S. Sharma, J. Yang, R. Olivares  : DMRG                   
  Ulf Ekstrom                                   : XCFun DFT Library      
  Mihaly Kallay                                 : mrcc  (arbitrary order and MRCC methods)
  Frank Weinhold                                : gennbo (NPA and NBO analysis)           
  Simon Mueller                                 : openCOSMO-RS                            
  Christopher J. Cramer and Donald G. Truhlar   : smd solvation model                     
  S Lehtola, MJT Oliveira, MAL Marques          : LibXC Library                           
  Liviu Ungur et al                             : ANISO software                          


 Your calculation uses the libint2 library for the computation of 2-el integrals
 For citations please refer to: http://libint.valeyev.net

 Your ORCA version has been built with support for libXC version: 7.0.0
 For citations please refer to: https://libxc.gitlab.io

 This ORCA versions uses:
   CBLAS   interface :  Fast vector & matrix operations
   LAPACKE interface :  Fast linear algebra routines
   SCALAPACK package :  Parallel linear algebra routines
   Shared memory     :  Shared parallel matrices
   BLAS/LAPACK       :  OpenBLAS 0.3.29  USE64BITINT DYNAMIC_ARCH NO_AFFINITY Haswell SINGLE_THREADED
        Core in use  :  Haswell
   Copyright (c) 2011-2014, The OpenBLAS Project


  ***********************************
  * Starting time: Wed Dec 31 15:36:54 2025
  * Host name:     corine-kengne-Latitude-5491
  * Process ID:    78930
  * Working dir.:  /home/corine-kengne/stage_BODIPY/OO-DFT /Iodo-BODIPY/Etats_Singulets
  ***********************************

Your calculation utilizes the atom-pairwise dispersion correction
with the Becke-Johnson damping scheme (D3BJ)


Your calculation utilizes the SMD solvation module
Please cite in your paper:
Marenich, A. V.; Cramer, C. J.; Truhlar, D. G. J. Phys. Chem. B 2009, 113, 6378 

Warning: RI is on but no J-basis has been assigned. Assigning Def2/J (nothing to worry about!)
================================================================================

cite the ECPs for I  [Def2-ECP] as follows:
Ce-Yb(ecp-28): M. Dolg, H. Stoll, H.Preuss, J. Chem. Phys., 1989, 90, 1730-1734.
Y-Cd(ecp-28), Hf-Hg(ecp-46): D. Andrae,U. Haeussermann, M. Dolg, H. Stoll, H. Preuss, Theor. Chim. Acta, 1990, 77, 123-141.
In-Sb(ecp-28), Tl-Bi(ecp-46): B. Metz, H. Stoll, M. Dolg, J. Chem. Phys., 2000, 113, 2563-2569.
Te-Xe(ecp-28), Po-Rn(ecp-46): K. A. Peterson, D. Figgen, E. Goll, H. Stoll, M. Dolg, J. Chem. Phys., 2003, 119, 11113-11123.
Rb(ecp-28), Cs(ecp-46): T. Leininger, A. Nicklass, W. Kuechle, H. Stoll, M. Dolg, A. Bergner, Chem. Phys. Lett., 1996, 255, 274-280.
Sr(ecp-28), Ba(ecp-46): M. Kaupp, P. V. Schleyer, H. Stoll and H. Preuss, J. Chem. Phys., 1991, 94, 1360-1366.
La(ecp-46): M. Dolg, H. Stoll, A. Savin, H. Preuss, Theor. Chim. Acta, 1989, 75, 173-194.
Lu(ecp-28): X. Cao, M. Dolg, J. Chem. Phys., 2001, 115, 7348-7355.

ECP parameters for I  [Def2-ECP] have been obtained from:
TURBOMOLE (7.0.2)

----- Orbital basis set information -----
Your calculation utilizes the basis: def2-SVP
   F. Weigend and R. Ahlrichs, Phys. Chem. Chem. Phys. 7, 3297 (2005).

----- AuxJ basis set information -----
Your calculation utilizes the auxiliary basis: def2/J
   H-Rn: F. Weigend, Phys. Chem. Chem. Phys. 8, 1057 (2006).
   Fr-Lr: K. Eichkorn, F. Weigend, O. Treutler, R. Ahlrichs; Theor. Chem. Acc. 97, 119 (1997).

================================================================================
                                        WARNINGS
                       Please study these warnings very carefully!
================================================================================


WARNING: Geometry Optimization
  ===> : Switching off AutoStart
         For restart on a previous wavefunction, please use MOREAD

================================================================================
                                       INPUT FILE
================================================================================
NAME = Iodo_S1.inp
|  1> ! Opt RKS B3LYP D3BJ def2-SVP TightSCF TIGHTOPT SlowConv
|  2> ! CPCM
|  3> ! SMD(Water)
|  4> 
|  5> %pal
|  6>   nprocs 4
|  7> end
|  8> 
|  9> %cpcm
| 10>   SMDSolvent "Water"  # for more complex biological media
| 11> end
| 12> 
| 13> %scf
| 14>   HFTyp UKS
| 15>   CNVDIIS true   # Active l'accélération DIIS (activé par défaut)
| 16>   AutoTRAH true # Active le basculement automatique vers l'algorithme TRAH 
| 17>   MaxIter 500
| 18>   ConvForce 1e-6
| 19>   LevelShift 0.2      # Shift (perturbation mineure des orbitales)
| 20>   CNVDamp true   # Active l'amortissement statique 
| 21>   DampFac 0.7    # Amortissement du cycle SCF (ici pour 70%)
| 22> end
| 23> 
| 24> %geom
| 25>   MaxStep 0.2
| 26>   Trust 0.3
| 27>   
| 28> end
| 29> 
| 30> # Stratégie de convergence robuste pour les états excités
| 31> # Utiliser un guess excité pré-généré si disponible : %moinp "S0_water_opt.gbw"
| 32> 
| 33> * xyz 0 1
| 34>   C          -4.80286961294822      2.86241884521691     -0.09162059387446
| 35>   C          -2.25413447161301      3.07995857318805     -0.04742108302624
| 36>   C           0.29723457589880      2.89597218852895     -0.00306216759662
| 37>   C          -5.61674793025061      1.73072578689259     -0.10413927162744
| 38>   C           1.12588700187278      1.77510888699339      0.01245436117753
| 39>   C           0.29656330350303      0.62814331318577     -0.00095240984928
| 40>   C          -4.77247926271982      0.59478246645374     -0.08729608039602
| 41>   N          -3.49044449911921      0.99259759431406     -0.06511500813329
| 42>   C          -1.03458513860126      2.40510178576333     -0.02578596290247
| 43>   F          -2.24674138552214     -0.73128261047876      1.09843186744586
| 44>   F          -2.21191215466075     -0.73453245063708     -1.18207368371683
| 45>   B          -2.23429925634671      0.06605117070409     -0.04303359160578
| 46>   I          -7.70957827753255      1.66747016424494     -0.13990013620246
| 47>   I           3.21930949469901      1.73940156574811      0.04755623172677
| 48>   C          -3.46475097627155      2.38914762359837     -0.06714806962082
| 49>   N          -0.99054829527993      1.00898700688042     -0.02386215348053
| 50>   H          -5.10458093600341      3.90774621202303     -0.09890650570845
| 51>   H          -2.26134508930089      4.17131555035551     -0.04901696749667
| 52>   H           0.58508244813654      3.94520729680581      0.00109928952321
| 53>   H           0.58792918713730     -0.42130905988642      0.00517029949629
| 54>   H          -5.04992272507737     -0.45844990989480     -0.09059436413235
| 55> *
| 56> 
| 57>                          ****END OF INPUT****
================================================================================

                       *****************************
                       * Geometry Optimization Run *
                       *****************************

Geometry optimization settings:
Update method            Update   .... BFGS
Choice of coordinates    CoordSys .... (2022) Redundant Internals
Initial Hessian          InHess   .... Almloef's Model
Max. no of cycles        MaxIter  .... 63

Convergence Tolerances:
Energy Change            TolE     ....  1.0000e-06 Eh
Max. Gradient            TolMAXG  ....  1.0000e-04 Eh/bohr
RMS Gradient             TolRMSG  ....  3.0000e-05 Eh/bohr
Max. Displacement        TolMAXD  ....  1.0000e-03 bohr
RMS Displacement         TolRMSD  ....  6.0000e-04 bohr
Strict Convergence                .... False

------------------------------------------------------------------------------
                        ORCA OPTIMIZATION COORDINATE SETUP
------------------------------------------------------------------------------

The optimization will be done in redundant internal coordinates (2022)
Making redundant internal coordinates   ...  (2022 redundants) done
Evaluating the initial hessian          ...  (Almloef) done
Evaluating the coordinates              ...  done
Calculating the B-matrix                .... done
Calculating the G-matrix                .... done
The number of degrees of freedom        ....  120

    -----------------------------------------------------------------
                    Redundant Internal Coordinates


    -----------------------------------------------------------------
         Definition                    Initial Value    Approx d2E/dq
    -----------------------------------------------------------------
      1. B(C   3,C   0)                  1.3940         0.615644   
      2. B(C   4,C   2)                  1.3940         0.615679   
      3. B(C   5,C   4)                  1.4154         0.569038   
      4. B(C   6,C   3)                  1.4154         0.569072   
      5. B(N   7,C   6)                  1.3425         0.666232   
      6. B(C   8,C   2)                  1.4196         0.560456   
      7. B(C   8,C   1)                  1.3940         0.615711   
      8. B(B  11,F  10)                  1.3924         0.596919   
      9. B(B  11,F   9)                  1.3924         0.596925   
     10. B(B  11,N   7)                  1.5610         0.345775   
     11. B(I  12,C   3)                  2.0941         0.158088   
     12. B(I  13,C   4)                  2.0940         0.158129   
     13. B(C  14,N   7)                  1.3968         0.545816   
     14. B(C  14,C   1)                  1.3940         0.615711   
     15. B(C  14,C   0)                  1.4196         0.560506   
     16. B(N  15,B  11)                  1.5609         0.345964   
     17. B(N  15,C   8)                  1.3968         0.545770   
     18. B(N  15,C   5)                  1.3425         0.666359   
     19. B(H  16,C   0)                  1.0880         0.362726   
     20. B(H  17,C   1)                  1.0914         0.358276   
     21. B(H  18,C   2)                  1.0880         0.362741   
     22. B(H  19,C   5)                  1.0892         0.361205   
     23. B(H  20,C   6)                  1.0892         0.361204   
     24. A(C  14,C   0,H  16)          125.5786         0.347376   
     25. A(C   3,C   0,H  16)          128.1706         0.352922   
     26. A(C   3,C   0,C  14)          106.2507         0.425739   
     27. A(C   8,C   1,C  14)          121.3381         0.432983   
     28. A(C   8,C   1,H  17)          119.3348         0.352192   
     29. A(C  14,C   1,H  17)          119.3271         0.352192   
     30. A(C   8,C   2,H  18)          125.5723         0.347373   
     31. A(C   4,C   2,H  18)          128.1772         0.352928   
     32. A(C   4,C   2,C   8)          106.2505         0.425736   
     33. A(C   0,C   3,C   6)          107.6482         0.426897   
     34. A(C   0,C   3,I  12)          127.4566         0.363343   
     35. A(C   6,C   3,I  12)          124.8952         0.358502   
     36. A(C   2,C   4,C   5)          107.6471         0.426896   
     37. A(C   5,C   4,I  13)          124.8956         0.358514   
     38. A(C   2,C   4,I  13)          127.4572         0.363363   
     39. A(C   4,C   5,N  15)          109.3922         0.430170   
     40. A(C   4,C   5,H  19)          128.6076         0.348015   
     41. A(N  15,C   5,H  19)          122.0002         0.355229   
     42. A(N   7,C   6,H  20)          121.9951         0.355217   
     43. A(C   3,C   6,N   7)          109.3895         0.430160   
     44. A(C   3,C   6,H  20)          128.6154         0.348018   
     45. A(C   6,N   7,B  11)          126.3547         0.394608   
     46. A(B  11,N   7,C  14)          125.3562         0.381125   
     47. A(C   6,N   7,C  14)          108.2890         0.424172   
     48. A(C   2,C   8,N  15)          108.4220         0.413978   
     49. A(C   1,C   8,N  15)          120.7626         0.420968   
     50. A(C   1,C   8,C   2)          130.8154         0.425740   
     51. A(N   7,B  11,F   9)          110.1379         0.388756   
     52. A(F  10,B  11,N  15)          110.1553         0.388792   
     53. A(F   9,B  11,N  15)          110.0580         0.388793   
     54. A(N   7,B  11,N  15)          106.4273         0.355391   
     55. A(F   9,B  11,F  10)          109.9685         0.426340   
     56. A(N   7,B  11,F  10)          110.0370         0.388755   
     57. A(C   1,C  14,N   7)          120.7594         0.420974   
     58. A(C   0,C  14,N   7)          108.4225         0.413991   
     59. A(C   0,C  14,C   1)          130.8180         0.425747   
     60. A(C   8,N  15,B  11)          125.3562         0.381156   
     61. A(C   5,N  15,B  11)          126.3554         0.394659   
     62. A(C   5,N  15,C   8)          108.2883         0.424180   
     63. D(C   6,C   3,C   0,H  16)    179.9867         0.026205   
     64. D(I  12,C   3,C   0,C  14)    179.9595         0.026205   
     65. D(I  12,C   3,C   0,H  16)     -0.0541         0.026205   
     66. D(C   6,C   3,C   0,C  14)      0.0003         0.026205   
     67. D(C   5,C   4,C   2,C   8)      0.0029         0.026208   
     68. D(I  13,C   4,C   2,C   8)    179.9519         0.026208   
     69. D(I  13,C   4,C   2,H  18)     -0.0589         0.026208   
     70. D(C   5,C   4,C   2,H  18)    179.9921         0.026208   
     71. D(N  15,C   5,C   4,C   2)      0.0037         0.022209   
     72. D(H  19,C   5,C   4,C   2)   -179.9964         0.022209   
     73. D(H  19,C   5,C   4,I  13)      0.0531         0.022209   
     74. D(N  15,C   5,C   4,I  13)   -179.9469         0.022209   
     75. D(H  20,C   6,C   3,C   0)   -179.9902         0.022212   
     76. D(N   7,C   6,C   3,I  12)   -179.9538         0.022212   
     77. D(N   7,C   6,C   3,C   0)      0.0067         0.022212   
     78. D(H  20,C   6,C   3,I  12)      0.0493         0.022212   
     79. D(C  14,N   7,C   6,C   3)     -0.0111         0.036384   
     80. D(C  14,N   7,C   6,H  20)    179.9861         0.036384   
     81. D(B  11,N   7,C   6,H  20)      0.0773         0.036384   
     82. D(B  11,N   7,C   6,C   3)   -179.9199         0.036384   
     83. D(N  15,C   8,C   2,H  18)   -179.9979         0.021518   
     84. D(C   1,C   8,C   2,H  18)     -0.0036         0.021518   
     85. D(C   1,C   8,C   2,C   4)    179.9859         0.021518   
     86. D(N  15,C   8,C   1,H  17)   -179.9661         0.026211   
     87. D(N  15,C   8,C   2,C   4)     -0.0083         0.021518   
     88. D(N  15,C   8,C   1,C  14)      0.0297         0.026211   
     89. D(C   2,C   8,C   1,H  17)      0.0402         0.026211   
     90. D(C   2,C   8,C   1,C  14)   -179.9640         0.026211   
     91. D(F  10,B  11,N   7,C   6)     60.5818         0.010000   
     92. D(F   9,B  11,N   7,C  14)    119.2946         0.010000   
     93. D(N  15,B  11,N   7,C   6)    179.9158         0.010000   
     94. D(F  10,B  11,N   7,C  14)   -119.3121         0.010000   
     95. D(F   9,B  11,N   7,C   6)    -60.8115         0.010000   
     96. D(C   1,C  14,N   7,B  11)     -0.0586         0.023726   
     97. D(C   1,C  14,N   7,C   6)   -179.9686         0.023726   
     98. D(C   0,C  14,N   7,C   6)      0.0112         0.023726   
     99. D(N   7,C  14,C   1,H  17)   -179.9720         0.026211   
    100. D(N   7,C  14,C   1,C   8)      0.0322         0.026211   
    101. D(C   0,C  14,C   1,H  17)      0.0533         0.026211   
    102. D(C   0,C  14,C   1,C   8)   -179.9425         0.026211   
    103. D(N   7,C  14,C   0,H  16)   -179.9937         0.021522   
    104. D(C   0,C  14,N   7,B  11)    179.9212         0.023726   
    105. D(N   7,C  14,C   0,C   3)     -0.0069         0.021522   
    106. D(C   1,C  14,C   0,H  16)     -0.0166         0.021522   
    107. D(C   1,C  14,C   0,C   3)    179.9702         0.021522   
    108. D(C   8,N  15,B  11,F   9)   -119.2833         0.010000   
    109. D(C   8,N  15,B  11,N   7)      0.0414         0.010000   
    110. D(C   5,N  15,B  11,F  10)    -60.8018         0.010000   
    111. D(C   5,N  15,B  11,N   7)    179.9414         0.010000   
    112. D(B  11,N  15,C   8,C   2)    179.9259         0.023722   
    113. D(B  11,N  15,C   8,C   1)     -0.0690         0.023722   
    114. D(C   5,N  15,C   8,C   2)      0.0107         0.023722   
    115. D(C   5,N  15,C   8,C   1)   -179.9842         0.023722   
    116. D(C   5,N  15,B  11,F   9)     60.6166         0.010000   
    117. D(B  11,N  15,C   5,H  19)      0.0771         0.036399   
    118. D(B  11,N  15,C   5,C   4)   -179.9229         0.036399   
    119. D(C   8,N  15,C   5,H  19)    179.9912         0.036399   
    120. D(C   8,N  15,C   5,C   4)     -0.0089         0.036399   
    -----------------------------------------------------------------

Number of atoms                         .... 21
Number of degrees of freedom            .... 120


         *************************************************************
         *                GEOMETRY OPTIMIZATION CYCLE   1            *
         *************************************************************
---------------------------------
CARTESIAN COORDINATES (ANGSTROEM)
---------------------------------
  C     -4.802870    2.862419   -0.091621
  C     -2.254134    3.079959   -0.047421
  C      0.297235    2.895972   -0.003062
  C     -5.616748    1.730726   -0.104139
  C      1.125887    1.775109    0.012454
  C      0.296563    0.628143   -0.000952
  C     -4.772479    0.594782   -0.087296
  N     -3.490444    0.992598   -0.065115
  C     -1.034585    2.405102   -0.025786
  F     -2.246741   -0.731283    1.098432
  F     -2.211912   -0.734532   -1.182074
  B     -2.234299    0.066051   -0.043034
  I     -7.709578    1.667470   -0.139900
  I      3.219309    1.739402    0.047556
  C     -3.464751    2.389148   -0.067148
  N     -0.990548    1.008987   -0.023862
  H     -5.104581    3.907746   -0.098907
  H     -2.261345    4.171316   -0.049017
  H      0.585082    3.945207    0.001099
  H      0.587929   -0.421309    0.005170
  H     -5.049923   -0.458450   -0.090594

----------------------------
CARTESIAN COORDINATES (A.U.)
----------------------------
  NO LB      ZA    FRAG     MASS         X           Y           Z
   0 C     6.0000    0    12.011   -9.076108    5.409188   -0.173138
   1 C     6.0000    0    12.011   -4.259697    5.820278   -0.089613
   2 C     6.0000    0    12.011    0.561692    5.472594   -0.005787
   3 C     6.0000    0    12.011  -10.614115    3.270598   -0.196795
   4 C     6.0000    0    12.011    2.127618    3.354470    0.023535
   5 C     6.0000    0    12.011    0.560423    1.187019   -0.001800
   6 C     6.0000    0    12.011   -9.018679    1.123976   -0.164966
   7 N     7.0000    0    14.007   -6.595984    1.875738   -0.123050
   8 C     6.0000    0    12.011   -1.955083    4.544984   -0.048728
   9 F     9.0000    0    18.998   -4.245726   -1.381924    2.075735
  10 F     9.0000    0    18.998   -4.179908   -1.388065   -2.233796
  11 B     5.0000    0    10.810   -4.222214    0.124819   -0.081322
  12 I    25.0000*   0   126.900  -14.568992    3.151062   -0.264373
  13 I    25.0000*   0   126.900    6.083613    3.286993    0.089868
  14 C     6.0000    0    12.011   -6.547430    4.514835   -0.126891
  15 N     7.0000    0    14.007   -1.871865    1.906709   -0.045093
  16 H     1.0000    0     1.008   -9.646260    7.384570   -0.186906
  17 H     1.0000    0     1.008   -4.273323    7.882644   -0.092629
  18 H     1.0000    0     1.008    1.105646    7.455361    0.002077
  19 H     1.0000    0     1.008    1.111025   -0.796159    0.009770
  20 H     1.0000    0     1.008   -9.542971   -0.866345   -0.171199
* core charge reduced due to ECP

--------------------------------
INTERNAL COORDINATES (ANGSTROEM)
--------------------------------
 C      0   0   0     0.000000000000     0.00000000     0.00000000
 C      1   0   0     2.558383855226     0.00000000     0.00000000
 C      2   1   0     2.558378924186   170.99824322     0.00000000
 C      1   2   3     1.394017148721   130.60339537     0.07007799
 C      3   2   1     1.394001487254   130.60421632   359.95621376
 C      5   3   2     1.415446065976   107.64710984     0.00000000
 C      4   1   2     1.415429441306   107.64815076     0.00000000
 N      7   4   1     1.342520767438   109.38954525     0.00000000
 C      2   1   4     1.393987208552   146.16741586     0.05048081
 F      8   7   4     2.423303886622   106.69289278   150.62844847
 F     10   8   7     2.280773817297    61.88508498    99.05764555
 B     10   8   7     1.392422119690    37.21455707   132.77452832
 I      4   1   2     2.094091443977   127.45664116   179.97567863
 I      5   3   2     2.094021224242   127.45723260   179.95952078
 C      2   1   4     1.393987533454    24.82929798   359.96233543
 N      6   5   3     1.342469010109   109.39215554     0.00000000
 H      1   2   9     1.088022109502   101.22596880   180.07436950
 H      2   1  17     1.091381964056    94.49780911     0.03279892
 H      3   2  18     1.088011042094   101.21858791     0.03216762
 H      6   5   3     1.089165666491   128.60759800   180.00362316
 H      7   4   1     1.089166742087   128.61536171   180.00978029

---------------------------
INTERNAL COORDINATES (A.U.)
---------------------------
 C      0   0   0     0.000000000000     0.00000000     0.00000000
 C      1   0   0     4.834644831823     0.00000000     0.00000000
 C      2   1   0     4.834635513508   170.99824322     0.00000000
 C      1   2   3     2.634310637072   130.60339537     0.07007799
 C      3   2   1     2.634281041189   130.60421632   359.95621376
 C      5   3   2     2.674805422031   107.64710984     0.00000000
 C      4   1   2     2.674774005957   107.64815076     0.00000000
 N      7   4   1     2.536996579559   109.38954525     0.00000000
 C      2   1   4     2.634254058352   146.16741586     0.05048081
 F      8   7   4     4.579380684983   106.69289278   150.62844847
 F     10   8   7     4.310037888109    61.88508498    99.05764555
 B     10   8   7     2.631296469028    37.21455707   132.77452832
 I      4   1   2     3.957259328503   127.45664116   179.97567863
 I      5   3   2     3.957126632437   127.45723260   179.95952078
 C      2   1   4     2.634254672328    24.82929798   359.96233543
 N      6   5   3     2.536898772382   109.39215554     0.00000000
 H      1   2   9     2.056063814610   101.22596880   180.07436950
 H      2   1  17     2.062413019567    94.49780911     0.03279892
 H      3   2  18     2.056042900239   101.21858791     0.03216762
 H      6   5   3     2.058224824138   128.60759800   180.00362316
 H      7   4   1     2.058226856720   128.61536171   180.00978029

---------------------
BASIS SET INFORMATION
---------------------
There are 6 groups of distinct atoms

 Group   1 Type C   : 7s4p1d contracted to 3s2p1d pattern {511/31/1}
 Group   2 Type N   : 7s4p1d contracted to 3s2p1d pattern {511/31/1}
 Group   3 Type F   : 7s4p1d contracted to 3s2p1d pattern {511/31/1}
 Group   4 Type B   : 7s4p1d contracted to 3s2p1d pattern {511/31/1}
 Group   5 Type I   : 10s7p6d contracted to 4s4p2d pattern {6211/4111/51}
 Group   6 Type H   : 4s1p contracted to 2s1p pattern {31/1}

Atom   0C    basis set group =>   1
Atom   1C    basis set group =>   1
Atom   2C    basis set group =>   1
Atom   3C    basis set group =>   1
Atom   4C    basis set group =>   1
Atom   5C    basis set group =>   1
Atom   6C    basis set group =>   1
Atom   7N    basis set group =>   2
Atom   8C    basis set group =>   1
Atom   9F    basis set group =>   3
Atom  10F    basis set group =>   3
Atom  11B    basis set group =>   4
Atom  12I    basis set group =>   5
Atom  13I    basis set group =>   5
Atom  14C    basis set group =>   1
Atom  15N    basis set group =>   2
Atom  16H    basis set group =>   6
Atom  17H    basis set group =>   6
Atom  18H    basis set group =>   6
Atom  19H    basis set group =>   6
Atom  20H    basis set group =>   6
---------------------------------
AUXILIARY/J BASIS SET INFORMATION
---------------------------------
There are 6 groups of distinct atoms

 Group   1 Type C   : 12s5p4d2f1g contracted to 6s4p3d1f1g pattern {711111/2111/211/2/1}
 Group   2 Type N   : 12s5p4d2f1g contracted to 6s4p3d1f1g pattern {711111/2111/211/2/1}
 Group   3 Type F   : 12s5p4d2f1g contracted to 6s4p3d1f1g pattern {711111/2111/211/2/1}
 Group   4 Type B   : 12s5p4d2f1g contracted to 6s4p3d1f1g pattern {711111/2111/211/2/1}
 Group   5 Type I   : 11s5p5d3f1g contracted to 8s4p3d2f1g pattern {41111111/2111/311/21/1}
 Group   6 Type H   : 5s2p1d contracted to 3s1p1d pattern {311/2/1}

Atom   0C    basis set group =>   1
Atom   1C    basis set group =>   1
Atom   2C    basis set group =>   1
Atom   3C    basis set group =>   1
Atom   4C    basis set group =>   1
Atom   5C    basis set group =>   1
Atom   6C    basis set group =>   1
Atom   7N    basis set group =>   2
Atom   8C    basis set group =>   1
Atom   9F    basis set group =>   3
Atom  10F    basis set group =>   3
Atom  11B    basis set group =>   4
Atom  12I    basis set group =>   5
Atom  13I    basis set group =>   5
Atom  14C    basis set group =>   1
Atom  15N    basis set group =>   2
Atom  16H    basis set group =>   6
Atom  17H    basis set group =>   6
Atom  18H    basis set group =>   6
Atom  19H    basis set group =>   6
Atom  20H    basis set group =>   6
-------------------------
ECP PARAMETER INFORMATION
-------------------------

 Group 1, Type I  ECP Def2-ECP (replacing 28 core electrons, lmax=3)

Atom  12I    ECP group =>   1
Atom  13I    ECP group =>   1



           ************************************************************
           *        Program running with 4 parallel MPI-processes     *
           *              working on a common directory               *
           ************************************************************
------------------------------------------------------------------------------
                             ORCA STARTUP CALCULATIONS
                           -- RI-GTO INTEGRALS CHOSEN --
------------------------------------------------------------------------------
------------------------------------------------------------------------------
                   ___                                                        
                  /   \      - P O W E R E D   B Y -                         
                 /     \                                                     
                 |  |  |   _    _      __       _____    __    __             
                 |  |  |  | |  | |    /  \     |  _  \  |  |  /  |          
                  \  \/   | |  | |   /    \    | | | |  |  | /  /          
                 / \  \   | |__| |  /  /\  \   | |_| |  |  |/  /          
                |  |  |   |  __  | /  /__\  \  |    /   |      \           
                |  |  |   | |  | | |   __   |  |    \   |  |\   \          
                \     /   | |  | | |  |  |  |  | |\  \  |  | \   \       
                 \___/    |_|  |_| |__|  |__|  |_| \__\ |__|  \__/        
                                                                              
                      - O R C A' S   B I G   F R I E N D -                    
                                      &                                       
                       - I N T E G R A L  F E E D E R -                       
                                                                              
 v1 FN, 2020, v2 2021, v3 2022-2024                                           
------------------------------------------------------------------------------


----------------------
SHARK INTEGRAL PACKAGE
----------------------

Number of atoms                             ...     21
Number of basis functions                   ...    273
Number of shells                            ...    119
Maximum angular momentum                    ...      2
Integral batch strategy                     ... SHARK/LIBINT Hybrid
RI-J (if used) integral strategy            ... SPLIT-RIJ (Revised 2003 algorithm where possible)
Printlevel                                  ...      1
Contraction scheme used                     ... SEGMENTED contraction
Prescreening option                         ... SCHWARTZ
   Thresh                                   ... 2.500e-11
   Tcut                                     ... 2.500e-12
   Tpresel                                  ... 2.500e-12 
Coulomb Range Separation                    ... NOT USED
Exchange Range Separation                   ... NOT USED
Multipole approximations                    ... NOT USED
Finite Nucleus Model                        ... NOT USED
CABS basis                                  ... NOT available
Auxiliary Coulomb fitting basis             ... AVAILABLE
   # of basis functions in Aux-J            ...    857
   # of shells in Aux-J                     ...    271
   Maximum angular momentum in Aux-J        ...      4
Auxiliary J/K fitting basis                 ... NOT available
Auxiliary Correlation fitting basis         ... NOT available
Auxiliary 'external' fitting basis          ... NOT available

Checking pre-screening integrals            ... done (  0.0 sec) Dimension = 119
   => SHARK Basis and OBASIS are compatible. Storing Pre-screening
Shell pair information
Shell pair cut-off parameter TPreSel        ...   2.5e-12
Total number of shell pairs                 ...      7140
Shell pairs after pre-screening             ...      5691
Total number of primitive shell pairs       ...     28941
Primitive shell pairs kept                  ...     14889
          la=0 lb=0:   1463 shell pairs
          la=1 lb=0:   2021 shell pairs
          la=1 lb=1:    721 shell pairs
          la=2 lb=0:    796 shell pairs
          la=2 lb=1:    574 shell pairs
          la=2 lb=2:    116 shell pairs

Checking whether 4 symmetric matrices of dimension 273 fit in memory
:Max Core in MB      =   4096.00
 MB in use           =     10.84
 MB left             =   4085.16
 MB needed           =      1.14
 Data fit in memory  = YES
Calculating RI/J V-Matrix + Cholesky decomp.... done (  0.0 sec)
Calculating Nuclear repulsion               ... done (  0.0 sec) ENN=   1382.168490295147 Eh

Diagonalization of the overlap matrix:
Smallest eigenvalue                        ... 5.590e-04
Time for diagonalization                   ...    0.015 sec
Threshold for overlap eigenvalues          ... 1.000e-07
Number of eigenvalues below threshold      ... 0
Time for construction of square roots      ...    0.005 sec
Total time needed                          ...    0.022 sec

-------------------
DFT GRID GENERATION
-------------------

General Integration Accuracy     IntAcc      ... 4.388
Radial Grid Type                 RadialGrid  ... OptM3 with GC (2021)
Angular Grid (max. ang.)         AngularGrid ... 4 (Lebedev-302)
Angular grid pruning method      GridPruning ... 4 (adaptive)
Weight generation scheme         WeightScheme... mBecke (2022)
Basis function cutoff            BFCut       ... 1.0000e-11
Integration weight cutoff        WCut        ... 1.0000e-14
Partially contracted basis set               ... off
Rotationally invariant grid construction     ... off
Angular grids for H and He will be reduced by one unit

Total number of grid points                  ...   122587
Total number of batches                      ...     1925
Average number of points per batch           ...       63
Average number of grid points per atom       ...     5837

--------------------
COSX GRID GENERATION
--------------------

GRIDX 1
-------
General Integration Accuracy     IntAcc      ... 3.816
Radial Grid Type                 RadialGrid  ... OptM3 with GC (2021)
Angular Grid (max. ang.)         AngularGrid ... 1 (Lebedev-50)
Angular grid pruning method      GridPruning ... 4 (adaptive)
Weight generation scheme         WeightScheme... mBecke (2022)
Basis function cutoff            BFCut       ... 1.0000e-11
Integration weight cutoff        WCut        ... 1.0000e-14
Partially contracted basis set               ... on
Rotationally invariant grid construction     ... off
Angular grids for H and He will be reduced by one unit

Total number of grid points                  ...    24412
Total number of batches                      ...      202
Average number of points per batch           ...      120
Average number of grid points per atom       ...     1162
UseSFitting                                  ... on

GRIDX 2
-------
General Integration Accuracy     IntAcc      ... 4.020
Radial Grid Type                 RadialGrid  ... OptM3 with GC (2021)
Angular Grid (max. ang.)         AngularGrid ... 2 (Lebedev-110)
Angular grid pruning method      GridPruning ... 4 (adaptive)
Weight generation scheme         WeightScheme... mBecke (2022)
Basis function cutoff            BFCut       ... 1.0000e-11
Integration weight cutoff        WCut        ... 1.0000e-14
Partially contracted basis set               ... on
Rotationally invariant grid construction     ... off
Angular grids for H and He will be reduced by one unit

Total number of grid points                  ...    40366
Total number of batches                      ...      325
Average number of points per batch           ...      124
Average number of grid points per atom       ...     1922
UseSFitting                                  ... on

GRIDX 3
-------
General Integration Accuracy     IntAcc      ... 4.338
Radial Grid Type                 RadialGrid  ... OptM3 with GC (2021)
Angular Grid (max. ang.)         AngularGrid ... 3 (Lebedev-194)
Angular grid pruning method      GridPruning ... 4 (adaptive)
Weight generation scheme         WeightScheme... mBecke (2022)
Basis function cutoff            BFCut       ... 1.0000e-11
Integration weight cutoff        WCut        ... 1.0000e-14
Partially contracted basis set               ... on
Rotationally invariant grid construction     ... off
Angular grids for H and He will be reduced by one unit

Total number of grid points                  ...    74782
Total number of batches                      ...      594
Average number of points per batch           ...      125
Average number of grid points per atom       ...     3561
UseSFitting                                  ... on
Grids setup in   2.7 sec
Initializing property integral containers    ... done (  0.0 sec)

SHARK setup successfully completed in   3.1 seconds

Maximum memory used throughout the entire STARTUP-calculation: 37.7 MB


           ************************************************************
           *        Program running with 4 parallel MPI-processes     *
           *              working on a common directory               *
           ************************************************************
-------------------------------------------------------------------------------
                                 ORCA GUESS
                   Start orbitals & Density for SCF / CASSCF
-------------------------------------------------------------------------------

------------
SCF SETTINGS
------------
Hamiltonian:
 Density Functional     Method          .... DFT(GTOs)
 Exchange Functional    Exchange        .... B88
   X-Alpha parameter    XAlpha          ....  0.666667
   Becke's b parameter  XBeta           ....  0.004200
 Correlation Functional Correlation     .... LYP
 LDA part of GGA corr.  LDAOpt          .... VWN-5
 Gradients option       PostSCFGGA      .... off
 Hybrid DFT is turned on
   Fraction HF Exchange ScalHFX         ....  0.200000
   Scaling of DF-GGA-X  ScalDFX         ....  0.720000
   Scaling of DF-GGA-C  ScalDFC         ....  0.810000
   Scaling of DF-LDA-C  ScalLDAC        ....  1.000000
   Perturbative correction              ....  0.000000
   NL short-range parameter             ....  4.800000
 RI-approximation to the Coulomb term is turned on
   Number of AuxJ basis functions       .... 857
   RIJ-COSX (HFX calculated with COS-X)).... on


General Settings:
 Integral files         IntName         .... Iodo_S1
 Hartree-Fock type      HFTyp           .... UHF
 Total Charge           Charge          ....    0
 Multiplicity           Mult            ....    1
 Number of Electrons    NEL             ....  146
 Basis Dimension        Dim             ....  273
 Nuclear Repulsion      ENuc            ....   1382.1684902951 Eh

Convergence Acceleration:
 AO-DIIS                CNVDIIS         .... on
   Start iteration      DIISMaxIt       ....     0
   Startup error        DIISStart       ....  0.200000
   # of expansion vecs  DIISMaxEq       ....     5
   Bias factor          DIISBfac        ....   1.050
   Max. coefficient     DIISMaxC        ....  10.000
 MO-DIIS                CNVKDIIS        .... off
 Trust-Rad. Augm. Hess. CNVTRAH         .... auto
   Auto Start mean grad. ratio tolernc. ....  1.125000
   Auto Start start iteration           ....    50
   Auto Start num. interpolation iter.  ....    10
   Max. Number of Micro iterations      ....    24
   Max. Number of Macro iterations      .... Maxiter - #DIIS iter
   Number of Davidson start vectors     ....     2
   Converg. threshold    (grad. norm)   ....   1.000e-05
   Grad. Scal. Fac. for Micro threshold ....   0.100
   Minimum threshold for Micro iter.    ....   1.000e-02
   NR start threshold (gradient norm)   ....   1.000e-04
   Initial trust radius                 ....   0.400
   Minimum AH scaling param. (alpha)    ....   1.000
   Maximum AH scaling param. (alpha)    .... 1000.000
   Quad. conv. algorithm                .... NR
   White noise on init. David. guess    .... on
   Maximum white noise                  ....   0.010
   Pseudo random numbers                .... off
   Inactive MOs                         .... canonical
   Orbital update algorithm             .... Taylor
   Preconditioner                       .... Diag
   Full preconditioner red. dimension   ....   250
 SOSCF                 CNVSOSCF           .... on
   Start iteration     SOSCFMaxIt         ....   150
   Startup grad/error  SOSCFStart         ....  0.001000
   Hessian update      SOSCFHessUp        .... L-BFGS
   Autom. constraints  SOSCFAutoConstrain .... off
 Level Shifting         CNVShift        .... on
   Level shift para.    LevelShift      ....    0.2000
   Turn off err/grad.   ShiftErr        ....    0.0000
 Zerner damping         CNVZerner       .... off
 Static damping         CNVDamp         .... on
   Fraction old density DampFac         ....    0.7000
   Max. Damping (<1)    DampMax         ....    0.9800
   Min. Damping (>=0)   DampMin         ....    0.0000
   Turn off err/grad.   DampErr         ....    0.0300

SCF Procedure:
 Maximum # iterations   MaxIter         ....   500
 SCF integral mode      SCFMode         .... Direct
   Integral package                     .... SHARK and LIBINT hybrid scheme
 Reset frequency        DirectResetFreq ....    20
 Integral Threshold     Thresh          ....  2.500e-11 Eh
 Primitive CutOff       TCut            ....  2.500e-12 Eh

Convergence Tolerance:
 Convergence Check Mode ConvCheckMode   .... Total+1el-Energy
 Convergence forced     ConvForced      .... 0
 Energy Change          TolE            ....  1.000e-08 Eh
 1-El. energy change                    ....  1.000e-05 Eh
 Orbital Gradient       TolG            ....  1.000e-05
 Orbital Rotation angle TolX            ....  1.000e-05
 DIIS Error             TolErr          ....  5.000e-07

------------------------------
INITIAL GUESS: MODEL POTENTIAL
------------------------------
Loading Hartree-Fock densities                     ... done
Atomic calculation to generate a density for atom 12 (I  with ECP)
  Multiplicity assumed   :    2
  Atomic configuration   : 1s2 2s2 2p6 3s2 3p6 4s2 3d10 4p6 5s2 4d10 5p5 
  Number of open shells  : 1
  Command: /home/corine-kengne/orca_6_1_0/orca Iodo_S1_atom53.inp "" > Iodo_S1_atom53.out
Returned from the atomic calculation with res=0
Calculating cut-offs                               ... done
Initializing the effective Hamiltonian             ... done
Setting up the integral package (SHARK)            ... done
Starting the Coulomb interaction                   ... done (   0.2 sec)
Making the grid                                    ... done (   0.4 sec)
Mapping shells                                     ... done
Starting the XC term evaluation                    ... done (   0.1 sec)
  promolecular density results
     # of electrons  =    201.989944111
     EX              =   -432.729727329
     EC              =     -8.767492201
     EX+EC           =   -441.497219530
Transforming the Hamiltonian                       ... done (   0.0 sec)
Diagonalizing the Hamiltonian                      ... done (   0.0 sec)
Back transforming the eigenvectors                 ... done (   0.0 sec)
Now organizing SCF variables                       ... done
                      ------------------
                      INITIAL GUESS DONE (   2.0 sec)
                      ------------------
             **** ENERGY FILE WAS UPDATED (Iodo_S1.en.tmp) ****
Finished Guess after   2.5 sec
Maximum memory used throughout the entire GUESS-calculation: 15.6 MB


           ************************************************************
           *        Program running with 4 parallel MPI-processes     *
           *              working on a common directory               *
           ************************************************************

-------------------------------------------------------------------------------------------
                                      ORCA LEAN-SCF
                              memory conserving SCF solver
-------------------------------------------------------------------------------------------

--------------------
CPCM SOLVATION MODEL
--------------------
CPCM parameters:
  Epsilon                                         ...      78.3550
  Refrac                                          ...       1.3328
  Rsolv                                           ...       1.3000
  Surface type                                    ... GAUSSIAN VDW
  Discretization scheme                           ... Constant charge density
    Threshold for H atoms                         ...       5.0000 (charges/Ang^2)
    Threshold for non-H atoms                     ...       5.0000 (charges/Ang^2)
  Epsilon function type                           ...         CPCM
Solvent:                                          ... WATER
SMD-CDS solvent descriptors:
  Soln                                            ...       1.3328
  Soln25                                          ...       1.3323
  Sola                                            ...       0.0000
  Solb                                            ...       0.0000
  Solg                                            ...       0.0000
  Solc                                            ...       0.0000
  Solh                                            ...       0.0000
Radii:
  Scheme                                          ... Element-dependent radii
  Radius for C  used is    3.4960 Bohr (=   1.8500 Ang.)
  Radius for N  used is    3.5716 Bohr (=   1.8900 Ang.)
  Radius for F  used is    3.2692 Bohr (=   1.7300 Ang.)
  Radius for B  used is    3.6283 Bohr (=   1.9200 Ang.)
  Radius for I  used is    3.7417 Bohr (=   1.9800 Ang.)
  Radius for H  used is    2.2677 Bohr (=   1.2000 Ang.)
Calculating surface                               ...        done! (  0.0s)
Cavity surface points                             ...         1845
Cavity Volume                                     ...    1570.9242
Cavity Surface-area                               ...     911.3042
Calculating surface distance matrix               ...        done! (  0.0s)
Performing Cholesky decomposition & store         ...        done! (  0.1s)
Overall time for CPCM initialization              ...                 0.1s

----------------------------------------D-I-I-S--------------------------------------------
Iteration    Energy (Eh)           Delta-E    RMSDP     MaxDP     DIISErr   Damp  Time(sec)
-------------------------------------------------------------------------------------------
               ***  Starting incremental Fock matrix formation  ***
    1    -1274.4487739190840330     0.00e+00  2.35e-03  3.49e-02  1.95e-01  0.700   6.0
    2    -1274.5676859744116882    -1.19e-01  1.57e-03  2.85e-02  1.32e-01  0.700   3.5
                               ***Turning on AO-DIIS***
    3    -1274.6232040217255417    -5.55e-02  7.25e-04  1.85e-02  8.85e-02  0.700   3.5
    4    -1274.6571172408139319    -3.39e-02  4.52e-04  1.12e-02  6.08e-02  0.700   3.8
    5    -1274.6802596682641706    -2.31e-02  3.24e-04  7.31e-03  4.24e-02  0.700   3.4
    6    -1274.6964461969214426    -1.62e-02  2.41e-04  5.18e-03  2.98e-02  0.700   3.8
    7    -1274.7077569101870722    -1.13e-02  6.03e-04  1.28e-02  2.09e-02  0.000   3.6
                              *** Initializing SOSCF ***
---------------------------------------S-O-S-C-F--------------------------------------
Iteration    Energy (Eh)           Delta-E    RMSDP     MaxDP     MaxGrad    Time(sec)
--------------------------------------------------------------------------------------
    8    -1274.7336899417423410    -2.59e-02  6.71e-05  1.05e-03  9.80e-04     3.7
               *** Restarting incremental Fock matrix formation ***
    9    -1274.7336894145569204     5.27e-07  6.16e-05  9.83e-04  4.60e-04     6.5
   10    -1274.7336834082339010     6.01e-06  3.33e-05  6.98e-04  6.84e-04     4.5
   11    -1274.7337016271258108    -1.82e-05  9.20e-06  1.66e-04  5.89e-05     3.8
   12    -1274.7337013666174244     2.61e-07  5.50e-06  8.97e-05  9.48e-05     3.5
   13    -1274.7337018237094526    -4.57e-07  1.70e-06  4.18e-05  1.11e-05     3.4
   14    -1274.7337018089306184     1.48e-08  9.50e-07  2.49e-05  1.59e-05     2.8
   15    -1274.7337018274583897    -1.85e-08  3.39e-07  5.75e-06  2.43e-06     2.5
                  *** Gradient check signals convergence ***

               *****************************************************
               *                     SUCCESS                       *
               *           SCF CONVERGED AFTER  15 CYCLES          *
               *****************************************************

Recomputing exchange energy using gridx3       ... done (    7.916 sec)
Old exchange energy                            :    -25.601448800 Eh
New exchange energy                            :    -25.601443134 Eh
Exchange energy change after final integration :      0.000005666 Eh
Total energy after final integration           :  -1274.733696181 Eh

SMD CDS free energy correction energy :                 5.26250     Kcal/mol
Total Energy after SMD CDS correction =             -1274.725309860 Eh
             **** ENERGY FILE WAS UPDATED (Iodo_S1.en.tmp) ****

----------------
TOTAL SCF ENERGY
----------------

Total Energy       :      -1274.72530986020865 Eh          -34687.03914 eV

Components:
Nuclear Repulsion  :       1382.16849029514651 Eh           37610.71671 eV
Electronic Energy  :      -2656.87618806320779 Eh          -72297.27660 eV
One Electron Energy:      -4714.77968302529644 Eh         -128295.67760 eV
Two Electron Energy:       2057.90349496208864 Eh           55998.40100 eV
CPCM Dielectric    :         -0.02600407977372 Eh              -0.70761 eV
SMD CDS (Gcds)     :          0.00838632117212 Eh               0.22820 eV

Virial components:
Potential Energy   :      -2175.25128955663968 Eh          -59191.59683 eV
Kinetic Energy     :        900.52597969643102 Eh           24504.55770 eV
Virial Ratio       :          2.41553418624293

DFT components:
N(Alpha)           :       72.999981956111 electrons
N(Beta)            :       72.999981956111 electrons
N(Total)           :      145.999963912223 electrons
E(X)               :     -101.820117903259 Eh       
E(C)               :       -6.262807493821 Eh       
E(XC)              :     -108.082925397080 Eh       

CPCM Solvation Model Properties:
Surface-charge          :         -0.08479592998379
Corrected charge        :          0.00000000000000
Outlying charge corr.   :          0.00043009279954 Eh               0.01170 eV
Free-energy (cav+disp)  :          0.00838632117212 Eh               0.22820 eV

---------------
SCF CONVERGENCE
---------------

  Last Energy change         ...    1.8528e-08  Tolerance :   1.0000e-08
  Last MAX-Density change    ...    5.7472e-06  Tolerance :   1.0000e-07
  Last RMS-Density change    ...    3.3892e-07  Tolerance :   5.0000e-09
  Last DIIS Error            ...    9.8050e-04  Tolerance :   5.0000e-07
  Last Orbital Gradient      ...    2.4275e-06  Tolerance :   1.0000e-05
  Last Orbital Rotation      ...    8.5503e-06  Tolerance :   1.0000e-05


----------------------
UHF SPIN CONTAMINATION
----------------------

Warning: in a DFT calculation there is little theoretical justification to 
         calculate <S**2> as in Hartree-Fock theory. We will do it anyways
         but you should keep in mind that the values have only limited relevance

Expectation value of <S**2>     :    -0.000000
Ideal value S*(S+1) for S=0.0   :     0.000000
Deviation                       :    -0.000000

----------------
ORBITAL ENERGIES
----------------
                 SPIN UP ORBITALS
  NO   OCC          E(Eh)            E(eV) 
   0   1.0000     -24.644133      -670.6009 
   1   1.0000     -24.644052      -670.5987 
   2   1.0000     -14.366750      -390.9392 
   3   1.0000     -14.366715      -390.9382 
   4   1.0000     -10.243027      -278.7269 
   5   1.0000     -10.242997      -278.7261 
   6   1.0000     -10.236626      -278.5527 
   7   1.0000     -10.233850      -278.4772 
   8   1.0000     -10.233783      -278.4754 
   9   1.0000     -10.225989      -278.2633 
  10   1.0000     -10.225988      -278.2633 
  11   1.0000     -10.207038      -277.7476 
  12   1.0000     -10.207029      -277.7474 
  13   1.0000      -6.842594      -186.1965 
  14   1.0000      -6.840850      -186.1490 
  15   1.0000      -6.840848      -186.1489 
  16   1.0000      -4.869884      -132.5163 
  17   1.0000      -4.869882      -132.5162 
  18   1.0000      -4.852085      -132.0319 
  19   1.0000      -4.852083      -132.0319 
  20   1.0000      -4.851710      -132.0217 
  21   1.0000      -4.851707      -132.0217 
  22   1.0000      -1.916900       -52.1615 
  23   1.0000      -1.916899       -52.1615 
  24   1.0000      -1.911674       -52.0193 
  25   1.0000      -1.911672       -52.0192 
  26   1.0000      -1.911371       -52.0110 
  27   1.0000      -1.911368       -52.0110 
  28   1.0000      -1.896824       -51.6152 
  29   1.0000      -1.896824       -51.6152 
  30   1.0000      -1.896822       -51.6152 
  31   1.0000      -1.896822       -51.6151 
  32   1.0000      -1.155443       -31.4412 
  33   1.0000      -1.122298       -30.5393 
  34   1.0000      -0.993870       -27.0446 
  35   1.0000      -0.977613       -26.6022 
  36   1.0000      -0.815012       -22.1776 
  37   1.0000      -0.798457       -21.7271 
  38   1.0000      -0.787688       -21.4341 
  39   1.0000      -0.739453       -20.1215 
  40   1.0000      -0.704789       -19.1783 
  41   1.0000      -0.682122       -18.5615 
  42   1.0000      -0.665633       -18.1128 
  43   1.0000      -0.596263       -16.2251 
  44   1.0000      -0.584297       -15.8995 
  45   1.0000      -0.579330       -15.7644 
  46   1.0000      -0.577971       -15.7274 
  47   1.0000      -0.513051       -13.9608 
  48   1.0000      -0.509584       -13.8665 
  49   1.0000      -0.505631       -13.7589 
  50   1.0000      -0.489653       -13.3241 
  51   1.0000      -0.466370       -12.6906 
  52   1.0000      -0.454342       -12.3633 
  53   1.0000      -0.437848       -11.9144 
  54   1.0000      -0.437382       -11.9018 
  55   1.0000      -0.432028       -11.7561 
  56   1.0000      -0.421478       -11.4690 
  57   1.0000      -0.411338       -11.1931 
  58   1.0000      -0.409582       -11.1453 
  59   1.0000      -0.381956       -10.3936 
  60   1.0000      -0.378756       -10.3065 
  61   1.0000      -0.372632       -10.1398 
  62   1.0000      -0.367875       -10.0104 
  63   1.0000      -0.362520        -9.8647 
  64   1.0000      -0.352650        -9.5961 
  65   1.0000      -0.321345        -8.7442 
  66   1.0000      -0.298418        -8.1204 
  67   1.0000      -0.295303        -8.0356 
  68   1.0000      -0.260803        -7.0968 
  69   1.0000      -0.259882        -7.0717 
  70   1.0000      -0.251262        -6.8372 
  71   1.0000      -0.241866        -6.5815 
  72   1.0000      -0.216416        -5.8890 
  73   0.0000      -0.110769        -3.0142 
  74   0.0000      -0.020048        -0.5455 
  75   0.0000      -0.015378        -0.4185 
  76   0.0000       0.015852         0.4313 
  77   0.0000       0.028790         0.7834 
  78   0.0000       0.050579         1.3763 
  79   0.0000       0.092409         2.5146 
  80   0.0000       0.099798         2.7156 
  81   0.0000       0.108141         2.9427 
  82   0.0000       0.113480         3.0879 
  83   0.0000       0.129548         3.5252 

                 SPIN DOWN ORBITALS
  NO   OCC          E(Eh)            E(eV) 
   0   1.0000     -24.644133      -670.6009 
   1   1.0000     -24.644052      -670.5987 
   2   1.0000     -14.366750      -390.9392 
   3   1.0000     -14.366715      -390.9382 
   4   1.0000     -10.243027      -278.7269 
   5   1.0000     -10.242997      -278.7261 
   6   1.0000     -10.236626      -278.5527 
   7   1.0000     -10.233850      -278.4772 
   8   1.0000     -10.233783      -278.4754 
   9   1.0000     -10.225989      -278.2633 
  10   1.0000     -10.225988      -278.2633 
  11   1.0000     -10.207038      -277.7476 
  12   1.0000     -10.207029      -277.7474 
  13   1.0000      -6.842594      -186.1965 
  14   1.0000      -6.840850      -186.1490 
  15   1.0000      -6.840848      -186.1489 
  16   1.0000      -4.869884      -132.5163 
  17   1.0000      -4.869882      -132.5162 
  18   1.0000      -4.852085      -132.0319 
  19   1.0000      -4.852083      -132.0319 
  20   1.0000      -4.851710      -132.0217 
  21   1.0000      -4.851707      -132.0217 
  22   1.0000      -1.916900       -52.1615 
  23   1.0000      -1.916899       -52.1615 
  24   1.0000      -1.911674       -52.0193 
  25   1.0000      -1.911672       -52.0192 
  26   1.0000      -1.911371       -52.0110 
  27   1.0000      -1.911368       -52.0110 
  28   1.0000      -1.896824       -51.6152 
  29   1.0000      -1.896824       -51.6152 
  30   1.0000      -1.896822       -51.6152 
  31   1.0000      -1.896822       -51.6151 
  32   1.0000      -1.155443       -31.4412 
  33   1.0000      -1.122298       -30.5393 
  34   1.0000      -0.993870       -27.0446 
  35   1.0000      -0.977613       -26.6022 
  36   1.0000      -0.815012       -22.1776 
  37   1.0000      -0.798457       -21.7271 
  38   1.0000      -0.787688       -21.4341 
  39   1.0000      -0.739453       -20.1215 
  40   1.0000      -0.704789       -19.1783 
  41   1.0000      -0.682122       -18.5615 
  42   1.0000      -0.665633       -18.1128 
  43   1.0000      -0.596263       -16.2251 
  44   1.0000      -0.584297       -15.8995 
  45   1.0000      -0.579330       -15.7644 
  46   1.0000      -0.577971       -15.7274 
  47   1.0000      -0.513051       -13.9608 
  48   1.0000      -0.509584       -13.8665 
  49   1.0000      -0.505631       -13.7589 
  50   1.0000      -0.489653       -13.3241 
  51   1.0000      -0.466370       -12.6906 
  52   1.0000      -0.454342       -12.3633 
  53   1.0000      -0.437848       -11.9144 
  54   1.0000      -0.437382       -11.9018 
  55   1.0000      -0.432028       -11.7561 
  56   1.0000      -0.421478       -11.4690 
  57   1.0000      -0.411338       -11.1931 
  58   1.0000      -0.409582       -11.1453 
  59   1.0000      -0.381956       -10.3936 
  60   1.0000      -0.378756       -10.3065 
  61   1.0000      -0.372632       -10.1398 
  62   1.0000      -0.367875       -10.0104 
  63   1.0000      -0.362520        -9.8647 
  64   1.0000      -0.352650        -9.5961 
  65   1.0000      -0.321345        -8.7442 
  66   1.0000      -0.298418        -8.1204 
  67   1.0000      -0.295303        -8.0356 
  68   1.0000      -0.260803        -7.0968 
  69   1.0000      -0.259882        -7.0717 
  70   1.0000      -0.251262        -6.8372 
  71   1.0000      -0.241866        -6.5815 
  72   1.0000      -0.216416        -5.8890 
  73   0.0000      -0.110769        -3.0142 
  74   0.0000      -0.020048        -0.5455 
  75   0.0000      -0.015378        -0.4185 
  76   0.0000       0.015852         0.4313 
  77   0.0000       0.028790         0.7834 
  78   0.0000       0.050579         1.3763 
  79   0.0000       0.092409         2.5146 
  80   0.0000       0.099798         2.7156 
  81   0.0000       0.108141         2.9427 
  82   0.0000       0.113480         3.0879 
  83   0.0000       0.129548         3.5252 
*Only the first 10 virtual orbitals were printed.

                    ********************************
                    * MULLIKEN POPULATION ANALYSIS *
                    ********************************

--------------------------------------------
MULLIKEN ATOMIC CHARGES AND SPIN POPULATIONS
--------------------------------------------
   0 C :   -0.006705    0.000000
   1 C :    0.073570    0.000000
   2 C :   -0.006726   -0.000000
   3 C :   -0.144855   -0.000000
   4 C :   -0.144806    0.000000
   5 C :    0.124928   -0.000000
   6 C :    0.124906    0.000000
   7 N :   -0.119556    0.000000
   8 C :    0.068093   -0.000000
   9 F :   -0.218601   -0.000000
  10 F :   -0.218613    0.000000
  11 B :    0.137854    0.000000
  12 I :    0.079888   -0.000000
  13 I :    0.079899   -0.000000
  14 C :    0.067940   -0.000000
  15 N :   -0.119426    0.000000
  16 H :    0.028451   -0.000000
  17 H :    0.045379    0.000000
  18 H :    0.028442   -0.000000
  19 H :    0.059984   -0.000000
  20 H :    0.059953    0.000000
Sum of atomic charges         :   -0.0000000
Sum of atomic spin populations:   -0.0000000

-----------------------------------------------------
MULLIKEN REDUCED ORBITAL CHARGES AND SPIN POPULATIONS
-----------------------------------------------------
CHARGE
  0 C s       :     3.308449  s :     3.308449
      pz      :     0.972658  p :     2.663764
      px      :     0.874208
      py      :     0.816897
      dz2     :     0.002753  d :     0.034493
      dxz     :     0.006124
      dyz     :     0.004302
      dx2y2   :     0.011114
      dxy     :     0.010199

  1 C s       :     3.288156  s :     3.288156
      pz      :     0.842286  p :     2.603384
      px      :     0.908045
      py      :     0.853053
      dz2     :     0.002610  d :     0.034889
      dxz     :     0.009377
      dyz     :     0.002504
      dx2y2   :     0.010028
      dxy     :     0.010370

  2 C s       :     3.308494  s :     3.308494
      pz      :     0.972603  p :     2.663740
      px      :     0.874732
      py      :     0.816405
      dz2     :     0.002754  d :     0.034493
      dxz     :     0.006161
      dyz     :     0.004265
      dx2y2   :     0.011026
      dxy     :     0.010288

  3 C s       :     3.077456  s :     3.077456
      pz      :     1.114081  p :     3.028721
      px      :     0.906953
      py      :     1.007687
      dz2     :     0.002932  d :     0.038678
      dxz     :     0.005877
      dyz     :     0.005573
      dx2y2   :     0.010487
      dxy     :     0.013809

  4 C s       :     3.077470  s :     3.077470
      pz      :     1.114072  p :     3.028658
      px      :     0.907065
      py      :     1.007521
      dz2     :     0.002932  d :     0.038678
      dxz     :     0.005891
      dyz     :     0.005558
      dx2y2   :     0.010547
      dxy     :     0.013750

  5 C s       :     3.208255  s :     3.208255
      pz      :     0.918025  p :     2.614114
      px      :     0.813912
      py      :     0.882177
      dz2     :     0.003872  d :     0.052703
      dxz     :     0.011590
      dyz     :     0.004191
      dx2y2   :     0.017313
      dxy     :     0.015737

  6 C s       :     3.208260  s :     3.208260
      pz      :     0.918073  p :     2.614135
      px      :     0.814519
      py      :     0.881543
      dz2     :     0.003872  d :     0.052699
      dxz     :     0.011600
      dyz     :     0.004178
      dx2y2   :     0.017266
      dxy     :     0.015784

  7 N s       :     3.409966  s :     3.409966
      pz      :     1.420115  p :     3.684404
      px      :     1.133811
      py      :     1.130478
      dz2     :     0.002114  d :     0.025187
      dxz     :     0.004117
      dyz     :     0.004278
      dx2y2   :     0.008714
      dxy     :     0.005965

  8 C s       :     3.057533  s :     3.057533
      pz      :     1.074764  p :     2.816009
      px      :     0.869437
      py      :     0.871808
      dz2     :     0.004436  d :     0.058365
      dxz     :     0.007010
      dyz     :     0.010102
      dx2y2   :     0.021274
      dxy     :     0.015545

  9 F s       :     3.857609  s :     3.857609
      pz      :     1.689573  p :     5.356200
      px      :     1.886295
      py      :     1.780332
      dz2     :     0.001374  d :     0.004792
      dxz     :     0.000681
      dyz     :     0.001914
      dx2y2   :     0.000442
      dxy     :     0.000381

 10 F s       :     3.857607  s :     3.857607
      pz      :     1.690394  p :     5.356215
      px      :     1.886260
      py      :     1.779561
      dz2     :     0.001365  d :     0.004792
      dxz     :     0.000679
      dyz     :     0.001918
      dx2y2   :     0.000446
      dxy     :     0.000384

 11 B s       :     2.676539  s :     2.676539
      pz      :     0.586285  p :     1.931153
      px      :     0.695753
      py      :     0.649115
      dz2     :     0.063596  d :     0.254454
      dxz     :     0.035050
      dyz     :     0.070188
      dx2y2   :     0.025178
      dxy     :     0.060442

 12 I s       :     3.968336  s :     3.968336
      pz      :     3.954413  p :    10.902874
      px      :     2.976584
      py      :     3.971878
      dz2     :     2.007464  d :    10.048902
      dxz     :     2.012334
      dyz     :     2.000137
      dx2y2   :     2.023344
      dxy     :     2.005623

 13 I s       :     3.968336  s :     3.968336
      pz      :     3.954413  p :    10.902857
      px      :     2.975995
      py      :     3.972450
      dz2     :     2.007464  d :    10.048908
      dxz     :     2.012342
      dyz     :     2.000130
      dx2y2   :     2.023389
      dxy     :     2.005582

 14 C s       :     3.057631  s :     3.057631
      pz      :     1.074759  p :     2.816061
      px      :     0.870040
      py      :     0.871261
      dz2     :     0.004436  d :     0.058369
      dxz     :     0.007039
      dyz     :     0.010073
      dx2y2   :     0.021278
      dxy     :     0.015543

 15 N s       :     3.409851  s :     3.409851
      pz      :     1.420156  p :     3.684386
      px      :     1.132599
      py      :     1.131632
      dz2     :     0.002114  d :     0.025188
      dxz     :     0.004153
      dyz     :     0.004242
      dx2y2   :     0.008743
      dxy     :     0.005937

 16 H s       :     0.947672  s :     0.947672
      pz      :     0.004462  p :     0.023877
      px      :     0.004145
      py      :     0.015269

 17 H s       :     0.930878  s :     0.930878
      pz      :     0.003511  p :     0.023744
      px      :     0.003358
      py      :     0.016875

 18 H s       :     0.947680  s :     0.947680
      pz      :     0.004462  p :     0.023877
      px      :     0.004050
      py      :     0.015365

 19 H s       :     0.916871  s :     0.916871
      pz      :     0.004203  p :     0.023145
      px      :     0.003260
      py      :     0.015682

 20 H s       :     0.916902  s :     0.916902
      pz      :     0.004203  p :     0.023145
      px      :     0.003161
      py      :     0.015781


SPIN
  0 C s       :     0.000000  s :     0.000000
      pz      :    -0.000000  p :     0.000000
      px      :     0.000000
      py      :     0.000000
      dz2     :     0.000000  d :     0.000000
      dxz     :     0.000000
      dyz     :    -0.000000
      dx2y2   :    -0.000000
      dxy     :     0.000000

  1 C s       :     0.000000  s :     0.000000
      pz      :     0.000000  p :    -0.000000
      px      :    -0.000000
      py      :     0.000000
      dz2     :    -0.000000  d :     0.000000
      dxz     :     0.000000
      dyz     :    -0.000000
      dx2y2   :     0.000000
      dxy     :    -0.000000

  2 C s       :    -0.000000  s :    -0.000000
      pz      :     0.000000  p :    -0.000000
      px      :     0.000000
      py      :    -0.000000
      dz2     :     0.000000  d :     0.000000
      dxz     :    -0.000000
      dyz     :    -0.000000
      dx2y2   :     0.000000
      dxy     :     0.000000

  3 C s       :    -0.000000  s :    -0.000000
      pz      :     0.000000  p :    -0.000000
      px      :    -0.000000
      py      :     0.000000
      dz2     :     0.000000  d :     0.000000
      dxz     :     0.000000
      dyz     :    -0.000000
      dx2y2   :     0.000000
      dxy     :     0.000000

  4 C s       :     0.000000  s :     0.000000
      pz      :     0.000000  p :     0.000000
      px      :     0.000000
      py      :    -0.000000
      dz2     :    -0.000000  d :    -0.000000
      dxz     :     0.000000
      dyz     :     0.000000
      dx2y2   :     0.000000
      dxy     :    -0.000000

  5 C s       :    -0.000000  s :    -0.000000
      pz      :     0.000000  p :    -0.000000
      px      :    -0.000000
      py      :    -0.000000
      dz2     :    -0.000000  d :    -0.000000
      dxz     :     0.000000
      dyz     :     0.000000
      dx2y2   :    -0.000000
      dxy     :    -0.000000

  6 C s       :     0.000000  s :     0.000000
      pz      :    -0.000000  p :     0.000000
      px      :    -0.000000
      py      :     0.000000
      dz2     :     0.000000  d :     0.000000
      dxz     :     0.000000
      dyz     :     0.000000
      dx2y2   :     0.000000
      dxy     :    -0.000000

  7 N s       :     0.000000  s :     0.000000
      pz      :     0.000000  p :     0.000000
      px      :     0.000000
      py      :     0.000000
      dz2     :    -0.000000  d :    -0.000000
      dxz     :    -0.000000
      dyz     :    -0.000000
      dx2y2   :    -0.000000
      dxy     :     0.000000

  8 C s       :    -0.000000  s :    -0.000000
      pz      :     0.000000  p :    -0.000000
      px      :    -0.000000
      py      :    -0.000000
      dz2     :    -0.000000  d :    -0.000000
      dxz     :    -0.000000
      dyz     :     0.000000
      dx2y2   :    -0.000000
      dxy     :    -0.000000

  9 F s       :    -0.000000  s :    -0.000000
      pz      :     0.000000  p :     0.000000
      px      :     0.000000
      py      :     0.000000
      dz2     :     0.000000  d :     0.000000
      dxz     :    -0.000000
      dyz     :     0.000000
      dx2y2   :     0.000000
      dxy     :    -0.000000

 10 F s       :     0.000000  s :     0.000000
      pz      :     0.000000  p :     0.000000
      px      :     0.000000
      py      :     0.000000
      dz2     :    -0.000000  d :    -0.000000
      dxz     :    -0.000000
      dyz     :     0.000000
      dx2y2   :     0.000000
      dxy     :    -0.000000

 11 B s       :     0.000000  s :     0.000000
      pz      :    -0.000000  p :    -0.000000
      px      :    -0.000000
      py      :     0.000000
      dz2     :    -0.000000  d :     0.000000
      dxz     :     0.000000
      dyz     :    -0.000000
      dx2y2   :     0.000000
      dxy     :     0.000000

 12 I s       :    -0.000000  s :    -0.000000
      pz      :     0.000000  p :    -0.000000
      px      :    -0.000000
      py      :    -0.000000
      dz2     :    -0.000000  d :    -0.000000
      dxz     :    -0.000000
      dyz     :    -0.000000
      dx2y2   :    -0.000000
      dxy     :    -0.000000

 13 I s       :     0.000000  s :     0.000000
      pz      :     0.000000  p :    -0.000000
      px      :    -0.000000
      py      :     0.000000
      dz2     :    -0.000000  d :    -0.000000
      dxz     :    -0.000000
      dyz     :     0.000000
      dx2y2   :    -0.000000
      dxy     :    -0.000000

 14 C s       :    -0.000000  s :    -0.000000
      pz      :     0.000000  p :    -0.000000
      px      :    -0.000000
      py      :     0.000000
      dz2     :    -0.000000  d :    -0.000000
      dxz     :    -0.000000
      dyz     :     0.000000
      dx2y2   :    -0.000000
      dxy     :     0.000000

 15 N s       :     0.000000  s :     0.000000
[...]
      dyz     :    -0.000000
      dx2y2   :     0.000000
      dxy     :    -0.000000

  3 C s       :     0.000000  s :     0.000000
      pz      :     0.000000  p :     0.000000
      px      :    -0.000000
      py      :    -0.000000
      dz2     :     0.000000  d :    -0.000000
      dxz     :    -0.000000
      dyz     :    -0.000000
      dx2y2   :    -0.000000
      dxy     :    -0.000000

  4 C s       :    -0.000000  s :    -0.000000
      pz      :    -0.000000  p :    -0.000000
      px      :    -0.000000
      py      :     0.000000
      dz2     :     0.000000  d :     0.000000
      dxz     :     0.000000
      dyz     :     0.000000
      dx2y2   :    -0.000000
      dxy     :    -0.000000

  5 C s       :    -0.000000  s :    -0.000000
      pz      :     0.000000  p :    -0.000000
      px      :    -0.000000
      py      :    -0.000000
      dz2     :     0.000000  d :     0.000000
      dxz     :    -0.000000
      dyz     :    -0.000000
      dx2y2   :     0.000000
      dxy     :     0.000000

  6 C s       :    -0.000000  s :    -0.000000
      pz      :    -0.000000  p :    -0.000000
      px      :    -0.000000
      py      :     0.000000
      dz2     :     0.000000  d :     0.000000
      dxz     :     0.000000
      dyz     :     0.000000
      dx2y2   :    -0.000000
      dxy     :     0.000000

  7 N s       :    -0.000000  s :    -0.000000
      pz      :     0.000000  p :     0.000000
      px      :    -0.000000
      py      :     0.000000
      dz2     :    -0.000000  d :    -0.000000
      dxz     :    -0.000000
      dyz     :    -0.000000
      dx2y2   :    -0.000000
      dxy     :     0.000000

  8 C s       :    -0.000000  s :    -0.000000
      pz      :    -0.000000  p :    -0.000000
      px      :    -0.000000
      py      :     0.000000
      dz2     :    -0.000000  d :     0.000000
      dxz     :     0.000000
      dyz     :     0.000000
      dx2y2   :     0.000000
      dxy     :     0.000000

  9 F s       :     0.000000  s :     0.000000
      pz      :    -0.000000  p :    -0.000000
      px      :    -0.000000
      py      :    -0.000000
      dz2     :    -0.000000  d :     0.000000
      dxz     :     0.000000
      dyz     :     0.000000
      dx2y2   :     0.000000
      dxy     :     0.000000

 10 F s       :     0.000000  s :     0.000000
      pz      :     0.000000  p :     0.000000
      px      :    -0.000000
      py      :     0.000000
      dz2     :    -0.000000  d :    -0.000000
      dxz     :    -0.000000
      dyz     :    -0.000000
      dx2y2   :    -0.000000
      dxy     :    -0.000000

 11 B s       :     0.000000  s :     0.000000
      pz      :     0.000000  p :     0.000000
      px      :     0.000000
      py      :     0.000000
      dz2     :    -0.000000  d :    -0.000000
      dxz     :     0.000000
      dyz     :    -0.000000
      dx2y2   :    -0.000000
      dxy     :    -0.000000

 12 I s       :     0.000000  s :     0.000000
      pz      :    -0.000000  p :     0.000000
      px      :     0.000000
      py      :     0.000000
      dz2     :    -0.000000  d :    -0.000000
      dxz     :    -0.000000
      dyz     :    -0.000000
      dx2y2   :    -0.000000
      dxy     :    -0.000000

 13 I s       :     0.000000  s :     0.000000
      pz      :     0.000000  p :    -0.000000
      px      :    -0.000000
      py      :    -0.000000
      dz2     :    -0.000000  d :    -0.000000
      dxz     :     0.000000
      dyz     :    -0.000000
      dx2y2   :    -0.000000
      dxy     :    -0.000000

 14 C s       :    -0.000000  s :    -0.000000
      pz      :     0.000000  p :    -0.000000
      px      :    -0.000000
      py      :    -0.000000
      dz2     :    -0.000000  d :    -0.000000
      dxz     :    -0.000000
      dyz     :     0.000000
      dx2y2   :     0.000000
      dxy     :    -0.000000

 15 N s       :    -0.000000  s :    -0.000000
      pz      :    -0.000000  p :     0.000000
      px      :     0.000000
      py      :     0.000000
      dz2     :     0.000000  d :     0.000000
      dxz     :     0.000000
      dyz     :    -0.000000
      dx2y2   :    -0.000000
      dxy     :    -0.000000

 16 H s       :    -0.000000  s :    -0.000000
      pz      :    -0.000000  p :    -0.000000
      px      :     0.000000
      py      :    -0.000000

 17 H s       :    -0.000000  s :    -0.000000
      pz      :     0.000000  p :     0.000000
      px      :     0.000000
      py      :    -0.000000

 18 H s       :    -0.000000  s :    -0.000000
      pz      :     0.000000  p :     0.000000
      px      :     0.000000
      py      :     0.000000

 19 H s       :    -0.000000  s :    -0.000000
      pz      :     0.000000  p :     0.000000
      px      :     0.000000
      py      :     0.000000

 20 H s       :     0.000000  s :     0.000000
      pz      :    -0.000000  p :    -0.000000
      px      :    -0.000000
      py      :     0.000000



                      *****************************
                      * MAYER POPULATION ANALYSIS *
                      *****************************

  NA   - Mulliken gross atomic population
  ZA   - Total nuclear charge
  QA   - Mulliken gross atomic charge
  VA   - Mayer's total valence
  BVA  - Mayer's bonded valence
  FA   - Mayer's free valence

  ATOM       NA         ZA         QA         VA         BVA        FA
  0 C      6.0067     6.0000    -0.0067     3.8274     3.8274    -0.0000
  1 C      5.9264     6.0000     0.0736     3.7027     3.7027    -0.0000
  2 C      6.0067     6.0000    -0.0067     3.8275     3.8275    -0.0000
  3 C      6.1449     6.0000    -0.1449     3.7611     3.7611    -0.0000
  4 C      6.1448     6.0000    -0.1448     3.7610     3.7610     0.0000
  5 C      5.8750     6.0000     0.1250     3.9033     3.9033    -0.0000
  6 C      5.8751     6.0000     0.1249     3.9034     3.9034    -0.0000
  7 N      7.1197     7.0000    -0.1197     3.4239     3.4239     0.0000
  8 C      5.9320     6.0000     0.0680     3.9039     3.9039    -0.0000
  9 F      9.2186     9.0000    -0.2186     1.2297     1.2297    -0.0000
 10 F      9.2186     9.0000    -0.2186     1.2297     1.2297    -0.0000
 11 B      4.8619     5.0000     0.1381     4.2050     4.2050    -0.0000
 12 I     24.9201    25.0000     0.0799     1.0874     1.0874     0.0000
 13 I     24.9201    25.0000     0.0799     1.0874     1.0874    -0.0000
 14 C      5.9321     6.0000     0.0679     3.9040     3.9040    -0.0000
 15 N      7.1196     7.0000    -0.1196     3.4240     3.4240     0.0000
 16 H      0.9715     1.0000     0.0285     0.9989     0.9989    -0.0000
 17 H      0.9546     1.0000     0.0454     0.9951     0.9951    -0.0000
 18 H      0.9715     1.0000     0.0285     0.9989     0.9989    -0.0000
 19 H      0.9400     1.0000     0.0600     0.9994     0.9994     0.0000
 20 H      0.9400     1.0000     0.0600     0.9994     0.9994    -0.0000

  Mayer bond orders larger than 0.100000
B(  0-C ,  3-C ) :   1.4251 B(  0-C , 14-C ) :   1.2259 B(  0-C , 16-H ) :   1.0153 
B(  1-C ,  8-C ) :   1.3114 B(  1-C , 14-C ) :   1.3114 B(  1-C , 17-H ) :   0.9748 
B(  2-C ,  4-C ) :   1.4251 B(  2-C ,  8-C ) :   1.2259 B(  2-C , 18-H ) :   1.0153 
B(  3-C ,  6-C ) :   1.2836 B(  3-C , 12-I ) :   0.9975 B(  4-C ,  5-C ) :   1.2835 
B(  4-C , 13-I ) :   0.9975 B(  5-C , 15-N ) :   1.3776 B(  5-C , 19-H ) :   0.9860 
B(  6-C ,  7-N ) :   1.3776 B(  6-C , 20-H ) :   0.9860 B(  7-N , 11-B ) :   0.7982 
B(  7-N , 14-C ) :   1.1830 B(  8-C , 15-N ) :   1.1829 B(  9-F , 11-B ) :   1.2236 
B( 10-F , 11-B ) :   1.2236 B( 11-B , 15-N ) :   0.7984 

-------
TIMINGS
-------

Total SCF time: 0 days 0 hours 0 min 22 sec 

Total time                  ....      22.028 sec
Sum of individual times     ....      20.180 sec  ( 91.6%)

SCF preparation             ....       0.486 sec  (  2.2%)
Fock matrix formation       ....      19.402 sec  ( 88.1%)
  Startup                   ....       0.007 sec  (  0.0% of F)
  Split-RI-J                ....       1.113 sec  (  5.7% of F)
  Chain of spheres X        ....      16.175 sec  ( 83.4% of F)
  XC integration            ....       2.557 sec  ( 13.2% of F)
    XC Preparation          ....       0.000 sec  (  0.0% of XC)
    Basis function eval.    ....       0.606 sec  ( 23.7% of XC)
    Density eval.           ....       0.732 sec  ( 28.6% of XC)
    XC-Functional eval.     ....       0.072 sec  (  2.8% of XC)
    XC-Potential eval.      ....       0.845 sec  ( 33.1% of XC)
  CPCM terms                ....       1.250 sec  (  6.4% of F)
Diagonalization             ....       0.000 sec  (  0.0%)
Density matrix formation    ....       0.028 sec  (  0.1%)
Total Energy calculation    ....       0.015 sec  (  0.1%)
Population analysis         ....       0.041 sec  (  0.2%)
Orbital Transformation      ....       0.036 sec  (  0.2%)
Orbital Orthonormalization  ....       0.000 sec  (  0.0%)
DIIS solution               ....       0.046 sec  (  0.2%)
SOSCF solution              ....       0.126 sec  (  0.6%)
Finished LeanSCF after  22.1 sec

Maximum memory used throughout the entire LEANSCF-calculation: 28.8 MB


-------------------------------------------------------------------------------
                          DFT DISPERSION CORRECTION                            
                                                                               
                              DFTD3 V3.1  Rev 1                                
                          USING Becke-Johnson damping                          
-------------------------------------------------------------------------------
The B3LYP functional is recognized
Active option DFTDOPT                   ...         4   

molecular C6(AA) [au] = 11731.498421 


            DFT-D V3
 parameters
 s6 scaling factor         :     1.0000 
 a1 scaling factor         :     0.3981 
 s8 scaling factor         :     1.9889 
 a2 scaling factor         :     4.4211 
 ad hoc parameters k1-k3   :    16.0000     1.3333    -4.0000 

 Edisp/kcal,au: -33.908400985295  -0.054036470794 
 E6   /kcal   : -14.560958853 
 E8   /kcal   : -19.347442133 
 % E8         :  57.057960772 

-------------------------   ----------------
Dispersion correction           -0.054036471
-------------------------   ----------------


-------------------------   --------------------
FINAL SINGLE POINT ENERGY     -1274.779345897905
-------------------------   --------------------

                                *** OPTIMIZATION RUN DONE ***



           ************************************************************
           *        Program running with 4 parallel MPI-processes     *
           *              working on a common directory               *
           ************************************************************

------------------------------------------------------------------------------
                              ORCA PROPERTY CALCULATIONS
------------------------------------------------------------------------------

GBWName                                 ... Iodo_S1.gbw
Number of atoms                         ...     21
Number of basis functions               ...    273
Max core memory                         ...   4096 MB

Electric properties:
Dipole moment                           ... YES
Quadrupole moment                       ...  NO
Static polarizability (Dipole/Dipole)   ...  NO
Static polarizability (Dipole/Quad.)    ...  NO
Static polarizability (Quad./Quad.)     ...  NO
Static polarizability (Velocity)        ...  NO
Static hyperpolarizability              ...  NO

Atomic electric properties:
Dipole moment                           ...  NO
Quadrupole moment                       ...  NO
Static polarizability                   ...  NO

Choice of electric origin               ... Center of mass
Position of electric origin             ...    -4.240166     2.832085    -0.086145

General magnetic properties:
Magnetizability                         ...  NO

EPR properties:
g-Tensor (aka g-matrix)                 ...  NO
Zero-Field splitting spin-orbit         ...  NO
Zero-field splitting spin-spin          ...  NO
Hyperfine couplings                     ...  NO (   0 nuclei)
Quadrupole couplings                    ...  NO (   0 nuclei)
Contact density                         ...  NO (   0 nuclei)

NMR properties:
Chemical shifts                         ...  NO (   0 nuclei)
Spin-rotation constants                 ...  NO (   0 nuclei)
Spin-spin couplings                     ...  NO (   0 nuclei,    0 pairs)

Choice of magnetic origin               ... GIAO
Position of magnetic origin             ...     0.000000     0.000000     0.000000

Properties with geometric perturbations:
SCF Hessian                             ...  NO
IR spectrum                             ...  NO
VCD spectrum                            ...  NO
X-ray spectroscopy properties:
SCF XES/XAS/RIXS spectra                ...  NO

SCF SOC stabilization energy            ...  NO
Diagonal Born-Oppenheimer correction    ...  NO

-------------
DIPOLE MOMENT
-------------

Method             : SCF
Type of density    : Electron Density
Multiplicity       :   1
Irrep              :   0
Energy             : -1274.7253094271106875 Eh
Basis              : AO
                                X                 Y                 Z
Electronic contribution:     -0.152315796      23.400816884      -0.069494886
Nuclear contribution   :      0.138429950     -21.101887094       0.066016587
                        -----------------------------------------
Total Dipole Moment    :     -0.013885846       2.298929791      -0.003478299
                        -----------------------------------------
Magnitude (a.u.)       :      2.298974358
Magnitude (Debye)      :      5.843528425



--------------------
Rotational spectrum 
--------------------
 
Rotational constants in cm-1:             0.040060             0.002025             0.001949 
Rotational constants in MHz :          1200.982577            60.696537            58.436849 

Dipole components along the rotational axes: 
x,y,z [a.u.] :     0.001186    -2.298974     0.000120 
x,y,z [Debye]:     0.003016    -5.843528     0.000305 

 

Dipole moment calculation done in   0.0 sec 

Maximum memory used throughout the entire PROP-calculation: 15.0 MB

--------------------------------
SUGGESTED CITATIONS FOR THIS RUN
--------------------------------

Below you find a list of papers that are relevant to this ORCA run
We neither can nor want to force you to cite these papers, but we appreciate if you do
You receive ORCA, which is the product of decades of hard work by many enthusiastic individuals, for free
The only thing we kindly ask in return is that you cite our papers,
We deeply appreciate it, if you show your appreciation for ORCA by not just citing the generic ORCA reference.

Please note that relegating all ORCA citations to the supporting information does *not* help us.
SI sections are not indexed - citations you put there will not count into any citation statistics
But we need these citations in order to attract the funding resources that allow us to do what we are doing

Therefore, if you are a happy ORCA user, please consider citing a few of the papers listed below in the main body of your paper

In addition to the list printed below, the program has created the file Iodo_S1.bibtex that contains the list in bibtex format
You can import this file easily into all common literature databanks and citation aid programs


List of essential papers. We consider these as the minimum necessary citations

  1. Neese, F.
     Software update: the ORCA program system, version 6.0
     WIRES Comput. Molec. Sci. 2025 15(1), e70019
     doi.org/10.1002/wcms.7019

List of papers to cite with high priority. The work reported in these papers was absolutely
necessary for this run to complete.
Our perspective: the developers of density functionals and basis sets usually get cited in chemistry papers
Good! But without the algorithms to do something with them, the functionals or basis sets would not do anything.
Hence, in our opinion, the algorithm design and method developments papers are equally worthy of getting cited

  1. Neese, F.
     An improvement of the resolution of the identity approximation for the formation of the Coulomb matrix
     J. Comp. Chem. 2003 24(14), 1740-1747
     doi.org/10.1002/jcc.10318
  2. Neese, F.; Wennmohs, F.; Hansen, A.; Becker, U.
     Efficient, approximate and parallel Hartree-Fock and hybrid DFT calculations. A 'chain-of-spheres' algorithm for the Hartree-Fock exchange
     Chem. Phys. 2009 356(1-3), 98-109
     doi.org/10.1016/j.chemphys.2008.10.036
  3. Grimme, S.; Antony, J.; Ehrlich, S.; Krieg, H.
     A consistent and accurate ab initio parametrization of density functional dispersion correction (DFT-D) for the 94 elements H-Pu
     J. Chem. Phys. 2010 132 , 154104
     doi.org/10.1063/1.3382344
  4. Grimme, S.; Ehrlich, S.; Goerigk, L.
     Effect of the damping function in dispersion corrected density functional theory
     J. Comput. Chem. 2011 32(7), 1456-1465
     doi.org/10.1002/jcc.21759
  5. Garcia-Rates, M.; Neese, F.
     Effect of the Solute Cavity on the Solvation Energy and its Derivatives within the Framework of the Gaussian Charge Scheme
     J. Comput. Chem. 2020 41 , 922-939
     doi.org/10.1002/jcc.26139
  6. Helmich-Paris, B.; de Souza, B.; Neese, F.; Izsák, R.
     An improved chain of spheres for exchange algorithm
     J. Chem. Phys. 2021 155(10), 104109
     doi.org/10.1063/5.0058766
  7. Neese, F.
     The SHARK Integral Generation and Digestion System
     J. Comp. Chem. 2022 44(3), 381
     doi.org/10.1002/jcc.26942

List of suggested additional citations. These are papers that are important in the 'surrounding' of 
of this run, or papers that preceded the highly important papers. If you like your results we are grateful for a citation.

  1. Izsak, R.; Neese, F.
     An overlap fitted chain of spheres exchange method
     J. Chem. Phys. 2011 135 , 144105
     doi.org/10.1063/1.3646921
  2. Izsak, R.; Hansen, A.; Neese, F.
     The resolution of identity and chain of spheres approximations for the LPNO-CCSD singles Fock term
     Molec. Phys. 2012 110 , 2413-2417
     doi.org/10.1080/00268976.2012.687466
  3. Neese, F.
     The ORCA program system
     WIRES Comput. Molec. Sci. 2012 2(1), 73-78
     doi.org/10.1002/wcms.81
  4. Izsak, R.; Neese, F.; Klopper, W.
     Robust fitting techniques in the chain of spheres approximation to the Fock exchange: The role of the complementary space
     J. Chem. Phys. 2013 139 , 
     doi.org/10.1063/1.4819264
  5. Neese, F.
     Software update: the ORCA program system, version 4.0
     WIRES Comput. Molec. Sci. 2018 8(1), 1-6
     doi.org/10.1002/wcms.1327
  6. Neese, F.; Wennmohs, F.; Becker, U.; Riplinger, C.
     The ORCA quantum chemistry program package
     J. Chem. Phys. 2020 152(22), 224108
     doi.org/10.1063/5.0004608
  7. Neese, F.
     Software update: The ORCA program system—Version 5.0
     WIRES Comput. Molec. Sci. 2022 12(1), e1606
     doi.org/10.1002/wcms.1606

List of optional additional citations

  1. Neese, F.
     Approximate second-order SCF convergence for spin unrestricted wavefunctions
     Chem. Phys. Lett. 2000 325(1-3), 93-98
     doi.org/10.1016/s0009-2614(00)00662-x

Timings for individual modules:

Sum of individual times          ...      128.082 sec (=   2.135 min)
Startup calculation              ...        6.303 sec (=   0.105 min)   4.9 %
SCF iterations                   ...       95.081 sec (=   1.585 min)  74.2 %
Property calculations            ...        0.496 sec (=   0.008 min)   0.4 %
SCF Gradient evaluation          ...       26.193 sec (=   0.437 min)  20.4 %
Geometry relaxation              ...        0.009 sec (=   0.000 min)   0.0 %
                             ****ORCA TERMINATED NORMALLY****
TOTAL RUN TIME: 0 days 0 hours 2 minutes 9 seconds 192 msec
