
                                 *****************
                                 * O   R   C   A *
                                 *****************

                                            #,                                       
                                            ###                                      
                                            ####                                     
                                            #####                                    
                                            ######                                   
                                           ########,                                 
                                     ,,################,,,,,                         
                               ,,#################################,,                 
                          ,,##########################################,,             
                       ,#########################################, ''#####,          
                    ,#############################################,,   '####,        
                  ,##################################################,,,,####,       
                ,###########''''           ''''###############################       
              ,#####''   ,,,,##########,,,,          '''####'''          '####       
            ,##' ,,,,###########################,,,                        '##       
           ' ,,###''''                  '''############,,,                           
         ,,##''                                '''############,,,,        ,,,,,,###''
      ,#''                                            '''#######################'''  
     '                                                          ''''####''''         
             ,#######,   #######,   ,#######,      ##                                
            ,#'     '#,  ##    ##  ,#'     '#,    #''#        ,####,    ,#,          
            ##       ##  ##   ,#'  ##            #'  '#       #'       ,# #          
            ##       ##  #######   ##           ,######,      #####,      #          
            '#,     ,#'  ##    ##  '#,     ,#' ,#      #,     #,   #      #          
             '#######'   ##     ##  '#######'  #'      '#     '####' #    #          



                #########################################################
                #                        -***-                          #
                #          Department of theory and spectroscopy        #
                #                                                       #
                #                      Frank Neese                      #
                #                                                       #
                #     Directorship, Architecture, Infrastructure        #
                #                    SHARK, DRIVERS                     #
                #        Core code/Algorithms in most modules           #
                #                                                       #
                #        Max Planck Institute fuer Kohlenforschung      #
                #                Kaiser Wilhelm Platz 1                 #
                #                 D-45470 Muelheim/Ruhr                 #
                #                      Germany                          #
                #                                                       #
                #                  All rights reserved                  #
                #                        -***-                          #
                #########################################################


                         Program Version 6.1.0  -  RELEASE   -
                                (GIT: $679e74b$)
                          ($2025-06-10 18:02:51 +0200$)


 With contributions from (in alphabetic order):
[Max-Planck-Institut fuer Kohlenforschung]                               
  Daniel Aravena         : Magnetic Suceptibility                        
  Michael Atanasov       : Ab Initio Ligand Field Theory (pilot matlab implementation)
  Alexander A. Auer      : GIAO ZORA, VPT2 properties, NMR spectrum      
  Ute Becker             : All parallelization in ORCA, NUMFREQ, NUMCALC 
  Giovanni Bistoni       : ED, misc. LED, open-shell LED, HFLD           
  Dmytro Bykov           : pre 5.0 version of the SCF Hessian            
  Marcos Casanova-Páez   : Triplet and SCS-CIS(D). UHF-(DLPNO)-IP/EA/STEOM-CCSD. UHF-CVS-IP/STEOM-CCSD   
  Vijay G. Chilkuri      : MRCI spin determinant printing, contributions to CSF-ICE 
  Pauline Colinet        : FMM embedding                                 
  Dipayan Datta          : RHF DLPNO-CCSD density                        
  Achintya Kumar Dutta   : EOM-CC, STEOM-CC                              
  Nicolas Foglia         : Exact transition moments, OPA infrastructure, MCD improvements    
  Dmitry Ganyushin       : Spin-Orbit,Spin-Spin,Magnetic field MRCI      
  Miquel Garcia-Rates    : C-PCM and meta-GGA Hessian, CCSD/C-PCM, Gaussian charge scheme 
  Tiago L. C. Gouveia    : GS-ROHF, GS-ROCIS                             
  Yang Guo               : DLPNO-NEVPT2, F12-NEVPT2, CIM, IAO-localization        
  Andreas Hansen         : Spin unrestricted coupled pair/coupled cluster methods 
  Ingolf Harden          : AUTO-CI MPn and infrastructure                
  Benjamin Helmich-Paris : MC-RPA, TRAH-(SCF,CASSCF), AVAS, COSX integrals, SCF dyn. polar., MC-PDFT, srDFT 
  Lee Huntington         : MR-EOM, pCC                                   
  Robert Izsak           : Overlap fitted RIJCOSX, COSX-SCS-MP3, EOM     
  Riya Kayal             : Wick's Theorem for AUTO-CI, AUTO-CI UHF-CCSDT 
  Emily Kempfer          : AUTO-CI RHF CISDT and CCSDT, approximate NEVPT4
  Christian Kollmar      : KDIIS, OOCD, Brueckner-CCSD(T), CCSD density, CASPT2, CASPT2-K, improved NEVPT2 
  Axel Koslowski         : Symmetry handling                             
  Simone Kossmann        : meta-GGA functionals, TD-DFT gradient, OOMP2, (MP2 Hessian; deprecated post 5.0) 
  Lucas Lang             : DCDCAS, Hyperfine gauge corrections, ICE-SOC+SSC
  Marvin Lechner         : AUTO-CI (C++ implementation), FIC-MRCC        
  Spencer Leger          : CASSCF response                               
  Dagmar Lenk            : GEPOL surface, SMD, ORCA-2-JSON               
  Dimitrios Liakos       : Extrapolation schemes; Compound Job, Property file
  Dimitrios Manganas     : Further ROCIS development; embedding schemes. LFT, Crystal Embedding 
  Dimitrios Pantazis     : SARC Basis sets                               
  Anastasios Papadopoulos: AUTO-CI, single reference methods and gradients 
  Taras Petrenko         : pre 6.0 DFT Hessian and TD-DFT gradient,  ECA, NRVS 
  Petra Pikulova         : Analytic Raman intensities                    
  Peter Pinski           : DLPNO-MP2, DLPNO-MP2 Gradient                 
  Shashank Vittal Rao    : ES-AILFT, MagRelax                            
  Christoph Reimann      : Effective Core Potentials                     
  Marius Retegan         : Local ZFS, SOC                                
  Christoph Riplinger    : Optimizer, TS searches, QM/MM, DLPNO-CCSD(T), (RO)-DLPNO pert. Triples 
  Michael Roemelt        : Original ROCIS implementation, recursive CI coupling coefficients
  Masaaki Saitow         : Open-shell DLPNO-CCSD energy and density      
  Barbara Sandhoefer     : DKH picture change effects                    
  Yorick L. A. Schmerwitz: GMF and freeze-and-release deltaSCF, NEB S-IDPP initial path                    
  Kantharuban Sivalingam : CASSCF convergence/infrastructure, NEVPT2, NEVPT3, NEVPT4(SD), FIC-MRCI and CEPA variants
  Bernardo de Souza      : ESD, SOC TD-DFT                               
  Georgi L. Stoychev     : AutoAux, RI-MP2 NMR, DLPNO-MP2 response, X2C  
  Van Anh Tran           : RI-MP2 g-tensors                              
  Willem Van den Heuvel  : Paramagnetic NMR                              
  Zikuan Wang            : NOTCH, Electric field optimization            
  Frank Wennmohs         : Technical directorship and infrastructure     
  Hang Xu                : AUTO-CI-Response properties                   
                                                                         
[FACCTs GmbH]                                                            
  Markus Bursch, Nicolas Foglia, Miquel Garcia-Rates, Ingolf Harden, Hagen Neugebauer, Anastasios Papadopoulos, 
  Christoph Riplinger, Bernardo de Souza, Georgi L. Stoychev                                                    
                                                                 
  APM, various basis sets, CI-OPT, improved COSX, DLPNO-Multilevel,           
  DOCKER, DRACO, updates on ESD, Fragmentator, GOAT, IRC, LR-CPCM, L-BFGS, MBIS, meta-GGA TD-DFT gradient, ML-optimized integration grids, 
  MM, NACMEs, nearIR, NEB, NEB-TS, NL-DFT gradient (VV10), 2- and 3-layer-ONIOM, interface openCOSMO-RS, QMMM,   
  Crystal-QMMM, RESP, rigid body optimization, SF, symmetry and pop. for TD-DFT, various functionals, SOLVATOR                                   
                                                                         
[Other institutions]                                                     
  V. Asgeirsson          : NEB                                           
  Christoph Bannwarth    : sTDA-DFT, sTD-DFT, PBEh-3c, B97-3c, D3        
  Giovanni Bistoni       : ETS/NOCV, ADLD/ADEX, COVALED                  
  Martin Brehm           : Molecular dynamics                            
  Ronald Cardenas        : ETS/NOCV                                      
  Martina Colucci        : COVALED                                       
  Sebastian Ehlert       : rSCAN, r2SCAN, r2SCAN-3c, D4, dhf basis sets  
  Marvin Friede          : D4 for Fr, Ra, Ac-Lr                          
  Lars Goerigk           : TD-DFT with DH, B97 family of functionals     
  Stefan Grimme          : VdW corrections, initial TS optimization, DFT functionals, gCP, sTDA/sTD-DF 
  Waldemar Hujo          : DFT-NL                                        
  H. Jonsson             : NEB                                           
  Holger Kruse           : gCP                                           
  Marcel Mueller         : wB97X-3c, vDZP basis set                      
  Hagen Neugebauer       : wr2SCAN, Native XTB                           
  Gianluca Regni         : ADLD/ADEX                                     
  Tobias Risthaus        : pre 6.0 range-separated hybrid DFT and stability analysis
  Lukas Wittmann         : regularized MP2, r2SCAN double-hybrids, wr2SCAN        
                                                                         
We gratefully acknowledge several colleagues who have allowed us to      
interface, adapt or use parts of their codes:                            
  Ed Valeev, F. Pavosevic, A. Kumar             : LibInt (2-el integral package), F12 methods 
  Garnet Chan, S. Sharma, J. Yang, R. Olivares  : DMRG                   
  Ulf Ekstrom                                   : XCFun DFT Library      
  Mihaly Kallay                                 : mrcc  (arbitrary order and MRCC methods)
  Frank Weinhold                                : gennbo (NPA and NBO analysis)           
  Simon Mueller                                 : openCOSMO-RS                            
  Christopher J. Cramer and Donald G. Truhlar   : smd solvation model                     
  S Lehtola, MJT Oliveira, MAL Marques          : LibXC Library                           
  Liviu Ungur et al                             : ANISO software                          


 Your calculation uses the libint2 library for the computation of 2-el integrals
 For citations please refer to: http://libint.valeyev.net

 Your ORCA version has been built with support for libXC version: 7.0.0
 For citations please refer to: https://libxc.gitlab.io

 This ORCA versions uses:
   CBLAS   interface :  Fast vector & matrix operations
   LAPACKE interface :  Fast linear algebra routines
   SCALAPACK package :  Parallel linear algebra routines
   Shared memory     :  Shared parallel matrices
   BLAS/LAPACK       :  OpenBLAS 0.3.29  USE64BITINT DYNAMIC_ARCH NO_AFFINITY Haswell SINGLE_THREADED
        Core in use  :  Haswell
   Copyright (c) 2011-2014, The OpenBLAS Project


  ***********************************
  * Starting time: Sat Jan  3 11:22:08 2026
  * Host name:     corine-kengne-Latitude-5491
  * Process ID:    5185
  * Working dir.:  /home/corine-kengne/stage_BODIPY/OO-DFT /TPP-BODIPY/Etats_Singulets
  ***********************************

Your calculation utilizes the atom-pairwise dispersion correction
with the Becke-Johnson damping scheme (D3BJ)


Your calculation utilizes the SMD solvation module
Please cite in your paper:
Marenich, A. V.; Cramer, C. J.; Truhlar, D. G. J. Phys. Chem. B 2009, 113, 6378 

Warning: RI is on but no J-basis has been assigned. Assigning Def2/J (nothing to worry about!)
================================================================================

----- Orbital basis set information -----
Your calculation utilizes the basis: def2-SVP
   F. Weigend and R. Ahlrichs, Phys. Chem. Chem. Phys. 7, 3297 (2005).

----- AuxJ basis set information -----
Your calculation utilizes the auxiliary basis: def2/J
   H-Rn: F. Weigend, Phys. Chem. Chem. Phys. 8, 1057 (2006).
   Fr-Lr: K. Eichkorn, F. Weigend, O. Treutler, R. Ahlrichs; Theor. Chem. Acc. 97, 119 (1997).

================================================================================
                                        WARNINGS
                       Please study these warnings very carefully!
================================================================================


WARNING: Geometry Optimization
  ===> : Switching off AutoStart
         For restart on a previous wavefunction, please use MOREAD

================================================================================
                                       INPUT FILE
================================================================================
NAME = TPP_S1.inp
|  1> ! Opt RKS B3LYP D3BJ def2-SVP TightSCF TIGHTOPT SlowConv
|  2> ! CPCM
|  3> ! SMD(Water)
|  4> 
|  5> %pal
|  6>   nprocs 4
|  7> end
|  8> 
|  9> %cpcm
| 10>   SMDSolvent "Water"  # for more complex biological media
| 11> end
| 12> 
| 13> %scf
| 14>   HFTyp UKS
| 15>   CNVDIIS true   # Active l'accélération DIIS (activé par défaut)
| 16>   AutoTRAH true # Active le basculement automatique vers l'algorithme TRAH 
| 17>   MaxIter 500
| 18>   ConvForce 1e-6
| 19>   LevelShift 0.2      # Shift (perturbation mineure des orbitales)
| 20>   CNVDamp true   # Active l'amortissement statique 
| 21>   DampFac 0.7    # Amortissement du cycle SCF (ici pour 70%)
| 22> end
| 23> 
| 24> %geom
| 25>   MaxStep 0.2
| 26>   Trust 0.3
| 27>   
| 28> end
| 29> 
| 30> # Stratégie de convergence robuste pour les états excités
| 31> # Utiliser un guess excité pré-généré si disponible : %moinp "S0_water_opt.gbw"
| 32> 
| 33> * xyz 1 1
| 34>  P          -6.30832735773155     10.96812283939130      1.44316682457672
| 35>   C          -7.65951753224581     13.84498815680210      4.75922666185441
| 36>   C          -7.36716541336424     14.32722177964735      3.47859097331445
| 37>   C          -6.95594909436459     13.44880350219867      2.47681025940053
| 38>   C          -6.85136364030526     12.07359511461335      2.75934872369191
| 39>   C          -7.53599002077155     12.48205872514655      5.04254344650716
| 40>   C          -7.13221237240895     11.59007570248565      4.04705857820963
| 41>   C          -8.45512247262368     11.85775704919795     -0.12444002666920
| 42>   C          -9.34775787875387     11.74675503098705     -1.19284201246747
| 43>   C          -9.29502541311905     10.63838358488724     -2.04276238021306
| 44>   C          -8.34969215313942      9.63043387959134     -1.82507021510103
| 45>   C          -7.45652892881564      9.72628425807827     -0.75804102399482
| 46>   C          -7.50717887477972     10.84649912460243      0.09047507077034
| 47>   C          -3.06566268397955     11.55171455479095     -0.95890228451544
| 48>   C          -4.30210718176255     11.12562200599550     -0.47418289068973
| 49>   C          -4.74309523354029     11.57473134788340      0.78135086355260
| 50>   C          -2.27630501621318     12.42423613295377     -0.20184771736399
| 51>   C          -2.72234676926217     12.87679884828904      1.04393376594352
| 52>   C          -3.95522380766480     12.45409974631100      1.54267035724301
| 53>   H          -8.87583887010918      5.91681197610351      3.48829371421711
| 54>   H          -7.97803429165782     14.53735649706508      5.54191803211594
| 55>   H          -7.45327024301356     15.39331386645229      3.25839239823036
| 56>   H          -7.75155836452569     12.10580948332186      6.04477036700056
| 57>   H          -7.03384823145150     10.53051741631892      4.28355247171177
| 58>   H          -6.70709495181665     13.83351180744853      1.48603783693025
| 59>   H          -4.91136883106648     10.44570447318146     -1.07071233722578
| 60>   H          -2.71895720674065     11.20145327489692     -1.93335485786447
| 61>   H          -1.30919340783116     12.75573596580880     -0.58697225961719
| 62>   H          -2.10779159126493     13.55976219522858      1.63417576664190
| 63>   H          -4.28868036702677     12.79395795164332      2.52362029879313
| 64>   H          -6.73455203678567      8.92589073247257     -0.58432493695001
| 65>   H          -8.31111409383204      8.75966312105598     -2.48307645748590
| 66>   H          -9.99776872835493     10.55567372394972     -2.87515875464843
| 67>   H         -10.09062742578106     12.53058483559344     -1.35544833504407
| 68>   H          -8.51613804040234     12.72080330300827      0.53861098983044
| 69>   C          -6.17416378072670      9.26266589131802      2.12214509285278
| 70>   C          -7.38462811096597      8.59903135779433      2.39682933744558
| 71>   C          -8.74519794521481      9.04013317995796      2.38028610965729
| 72>   C          -9.52461956774522      7.98766723952899      2.84277215457954
| 73>   C          -8.64415412345982      6.91692885838970      3.12250682786003
| 74>   C          -4.93783796868226      8.64781633966139      2.37469008866435
| 75>   C          -3.58051965668444      9.10680689820027      2.33849122029515
| 76>   C          -2.77918959572244      8.06621440420631      2.78506179480312
| 77>   C          -3.63830828121551      6.98150896035835      3.07698640881716
| 78>   N          -7.37965198346695      7.28255188014253      2.86207254765361
| 79>   N          -4.91132116987059      7.32559129084877      2.83818398879795
| 80>   B          -6.13055662224142      6.36579931650408      2.89713120005595
| 81>   F          -6.10525661591584      5.61531370925996      4.06483492409412
| 82>   F          -6.12543869096137      5.52294467789308      1.78311982384370
| 83>   H          -1.69736442635907      8.07150338324238      2.89964916695516
| 84>   H          -3.38438499035550      5.98482791164296      3.43759088776030
| 85>   H          -3.24256998326305     10.09367708105750      2.04702427706357
| 86>   H          -9.09802734034009     10.02537303950075      2.08810431853061
| 87>   H         -10.60443433530244      7.97560535148987      2.97463045838477
| 88> *
| 89> 
| 90>                          ****END OF INPUT****
================================================================================

                       *****************************
                       * Geometry Optimization Run *
                       *****************************

Geometry optimization settings:
Update method            Update   .... BFGS
Choice of coordinates    CoordSys .... (2022) Redundant Internals
Initial Hessian          InHess   .... Almloef's Model
Max. no of cycles        MaxIter  .... 162

Convergence Tolerances:
Energy Change            TolE     ....  1.0000e-06 Eh
Max. Gradient            TolMAXG  ....  1.0000e-04 Eh/bohr
RMS Gradient             TolRMSG  ....  3.0000e-05 Eh/bohr
Max. Displacement        TolMAXD  ....  1.0000e-03 bohr
RMS Displacement         TolRMSD  ....  6.0000e-04 bohr
Strict Convergence                .... False

------------------------------------------------------------------------------
                        ORCA OPTIMIZATION COORDINATE SETUP
------------------------------------------------------------------------------

The optimization will be done in redundant internal coordinates (2022)
Making redundant internal coordinates   ...  (2022 redundants) done
Evaluating the initial hessian          ...  (Almloef) done
Evaluating the coordinates              ...  done
Calculating the B-matrix                .... done
Calculating the G-matrix                .... done
The number of degrees of freedom        ....  308

    -----------------------------------------------------------------
                    Redundant Internal Coordinates


    -----------------------------------------------------------------
         Definition                    Initial Value    Approx d2E/dq
    -----------------------------------------------------------------
      1. B(C   2,C   1)                  1.3993         0.603806   
      2. B(C   3,C   2)                  1.3944         0.614835   
      3. B(C   4,P   0)                  1.8026         0.461305   
      4. B(C   4,C   3)                  1.4078         0.585199   
      5. B(C   5,C   1)                  1.3975         0.607739   
      6. B(C   6,C   4)                  1.4039         0.593749   
      7. B(C   6,C   5)                  1.3963         0.610497   
      8. B(C   8,C   7)                  1.3966         0.609741   
      9. B(C   9,C   8)                  1.3977         0.607317   
     10. B(C  10,C   9)                  1.3989         0.604630   
     11. B(C  11,C  10)                  1.3948         0.613866   
     12. B(C  12,C  11)                  1.4062         0.588676   
     13. B(C  12,C   7)                  1.4027         0.596425   
     14. B(C  12,P   0)                  1.8116         0.446306   
     15. B(C  14,C  13)                  1.3947         0.614009   
     16. B(C  15,C  14)                  1.4045         0.592452   
     17. B(C  15,P   0)                  1.8044         0.458199   
     18. B(C  16,C  13)                  1.3991         0.604231   
     19. B(C  17,C  16)                  1.3985         0.605639   
     20. B(C  18,C  17)                  1.3955         0.612317   
     21. B(C  18,C  15)                  1.4049         0.591598   
     22. B(H  20,C   1)                  1.0924         0.356882   
     23. B(H  21,C   2)                  1.0920         0.357470   
     24. B(H  22,C   5)                  1.0920         0.357447   
     25. B(H  23,C   6)                  1.0901         0.359998   
     26. B(H  24,C   3)                  1.0916         0.358009   
     27. B(H  25,C  14)                  1.0906         0.359352   
     28. B(H  26,C  13)                  1.0920         0.357475   
     29. B(H  27,C  16)                  1.0925         0.356831   
     30. B(H  28,C  17)                  1.0920         0.357441   
     31. B(H  29,C  18)                  1.0904         0.359579   
     32. B(H  30,C  11)                  1.0918         0.357708   
     33. B(H  31,C  10)                  1.0921         0.357321   
     34. B(H  32,C   9)                  1.0925         0.356798   
     35. B(H  33,C   8)                  1.0921         0.357331   
     36. B(H  34,C   7)                  1.0900         0.360034   
     37. B(C  35,P   0)                  1.8405         0.401256   
     38. B(C  36,C  35)                  1.4075         0.585870   
     39. B(C  37,C  36)                  1.4304         0.538655   
     40. B(C  38,C  37)                  1.3889         0.627299   
     41. B(C  39,C  38)                  1.4142         0.571656   
     42. B(C  39,H  19)                  1.0898         0.360336   
     43. B(C  40,C  35)                  1.4037         0.594171   
     44. B(C  41,C  40)                  1.4333         0.532949   
     45. B(C  42,C  41)                  1.3872         0.631203   
     46. B(C  43,C  42)                  1.4142         0.571701   
     47. B(N  44,C  39)                  1.3418         0.667958   
     48. B(N  44,C  36)                  1.3963         0.546837   
     49. B(N  45,C  43)                  1.3401         0.672079   
     50. B(N  45,C  40)                  1.4014         0.536725   
     51. B(B  46,N  45)                  1.5528         0.356405   
     52. B(B  46,N  44)                  1.5498         0.360355   
     53. B(F  47,B  46)                  1.3883         0.606014   
     54. B(F  48,B  46)                  1.3969         0.587092   
     55. B(H  49,C  42)                  1.0879         0.362903   
     56. B(H  50,C  43)                  1.0899         0.360230   
     57. B(H  51,C  41)                  1.0831         0.369363   
     58. B(H  52,C  37)                  1.0865         0.364714   
     59. B(H  53,C  38)                  1.0879         0.362885   
     60. A(C   4,P   0,C  12)          112.7692         0.441661   
     61. A(C  15,P   0,C  35)          112.5555         0.432743   
     62. A(C   4,P   0,C  35)          108.7151         0.433269   
     63. A(C   4,P   0,C  15)          108.8420         0.443767   
     64. A(C  12,P   0,C  15)          108.8294         0.441122   
     65. A(C  12,P   0,C  35)          105.1582         0.430703   
     66. A(C   5,C   1,H  20)          119.9082         0.351185   
     67. A(C   2,C   1,C   5)          120.2091         0.430458   
     68. A(C   2,C   1,H  20)          119.8810         0.350800   
     69. A(C   3,C   2,H  21)          119.5650         0.351973   
     70. A(C   1,C   2,C   3)          120.1343         0.431356   
     71. A(C   1,C   2,H  21)          120.2997         0.350898   
     72. A(C   2,C   3,C   4)          119.5446         0.428939   
     73. A(C   4,C   3,H  24)          120.6297         0.349138   
     74. A(C   2,C   3,H  24)          119.8217         0.352063   
     75. A(P   0,C   4,C   3)          118.3533         0.434602   
     76. A(P   0,C   4,C   6)          121.2513         0.435738   
     77. A(C   3,C   4,C   6)          120.3754         0.426265   
     78. A(C   1,C   5,C   6)          120.2668         0.431311   
     79. A(C   6,C   5,H  22)          119.4265         0.351548   
     80. A(C   1,C   5,H  22)          120.3064         0.351279   
     81. A(C   4,C   6,H  23)          121.0458         0.350321   
     82. A(C   5,C   6,H  23)          119.4953         0.351971   
     83. A(C   4,C   6,C   5)          119.4577         0.429511   
     84. A(C  12,C   7,H  34)          121.0275         0.350593   
     85. A(C   8,C   7,H  34)          119.5031         0.351903   
     86. A(C   8,C   7,C  12)          119.4622         0.429762   
     87. A(C   7,C   8,H  33)          119.4462         0.351455   
     88. A(C   9,C   8,H  33)          120.2829         0.351219   
     89. A(C   7,C   8,C   9)          120.2701         0.431161   
     90. A(C  10,C   9,H  32)          119.9132         0.350867   
     91. A(C   8,C   9,H  32)          119.9383         0.351130   
     92. A(C   8,C   9,C  10)          120.1474         0.430510   
     93. A(C   9,C  10,H  31)          120.3048         0.350954   
     94. A(C  11,C  10,H  31)          119.5441         0.351854   
     95. A(C   9,C  10,C  11)          120.1490         0.431340   
     96. A(C  10,C  11,C  12)          119.5568         0.429274   
     97. A(C  10,C  11,H  30)          119.6553         0.351919   
     98. A(C  12,C  11,H  30)          120.7839         0.349437   
     99. A(P   0,C  12,C   7)          120.8803         0.433504   
    100. A(C   7,C  12,C  11)          120.4124         0.427061   
    101. A(P   0,C  12,C  11)          118.6988         0.432486   
    102. A(C  14,C  13,H  26)          119.5774         0.351894   
    103. A(C  14,C  13,C  16)          120.1735         0.431307   
    104. A(C  16,C  13,H  26)          120.2489         0.350940   
    105. A(C  13,C  14,C  15)          119.4289         0.429785   
    106. A(C  15,C  14,H  25)          120.8594         0.350085   
    107. A(C  13,C  14,H  25)          119.7111         0.352206   
    108. A(C  14,C  15,C  18)          120.5653         0.426929   
    109. A(P   0,C  15,C  18)          119.8774         0.434924   
    110. A(P   0,C  15,C  14)          119.5214         0.435037   
    111. A(C  17,C  16,H  27)          119.8798         0.350972   
    112. A(C  13,C  16,H  27)          119.8627         0.350833   
    113. A(C  13,C  16,C  17)          120.2572         0.430245   
    114. A(C  16,C  17,C  18)          120.1408         0.431273   
    115. A(C  18,C  17,H  28)          119.5682         0.351724   
    116. A(C  16,C  17,H  28)          120.2906         0.351073   
    117. A(C  15,C  18,C  17)          119.4320         0.429461   
    118. A(C  15,C  18,H  29)          120.7382         0.350037   
    119. A(C  17,C  18,H  29)          119.8206         0.352079   
    120. A(P   0,C  35,C  36)          116.4998         0.423950   
    121. A(C  36,C  35,C  40)          121.0529         0.426407   
    122. A(P   0,C  35,C  40)          122.4424         0.425018   
    123. A(C  35,C  36,C  37)          132.0958         0.418998   
    124. A(C  37,C  36,N  44)          107.3375         0.411215   
    125. A(C  35,C  36,N  44)          120.4317         0.417402   
    126. A(C  36,C  37,C  38)          107.2328         0.424141   
    127. A(C  38,C  37,H  52)          126.4722         0.354373   
    128. A(C  36,C  37,H  52)          126.2721         0.345378   
    129. A(C  39,C  38,H  53)          125.8449         0.348556   
    130. A(C  37,C  38,H  53)          127.2838         0.354071   
    131. A(C  37,C  38,C  39)          106.8707         0.428682   
    132. A(C  38,C  39,N  44)          109.9999         0.430710   
    133. A(H  19,C  39,N  44)          121.0335         0.355228   
    134. A(H  19,C  39,C  38)          128.9653         0.348142   
    135. A(C  41,C  40,N  45)          107.0129         0.409084   
    136. A(C  35,C  40,N  45)          119.3054         0.417060   
    137. A(C  35,C  40,C  41)          133.5729         0.419254   
    138. A(C  40,C  41,H  51)          126.4466         0.345495   
    139. A(C  42,C  41,H  51)          126.1483         0.355508   
    140. A(C  40,C  41,C  42)          107.3787         0.423804   
    141. A(C  43,C  42,H  49)          125.8811         0.348564   
    142. A(C  41,C  42,H  49)          127.2066         0.354446   
    143. A(C  41,C  42,C  43)          106.9113         0.429165   
    144. A(N  45,C  43,H  50)          121.0011         0.355581   
    145. A(C  42,C  43,H  50)          128.9161         0.348130   
    146. A(C  42,C  43,N  45)          110.0815         0.431192   
    147. A(C  39,N  44,B  46)          126.4383         0.397659   
    148. A(C  36,N  44,B  46)          124.6199         0.383993   
    149. A(C  36,N  44,C  39)          108.5555         0.424510   
    150. A(C  43,N  45,B  46)          125.4779         0.397319   
    151. A(C  40,N  45,B  46)          125.5135         0.382018   
    152. A(C  40,N  45,C  43)          108.6123         0.423562   
    153. A(F  47,B  46,F  48)          110.1524         0.426227   
    154. A(N  45,B  46,F  48)          109.8638         0.389685   
    155. A(N  44,B  46,F  48)          109.9875         0.390436   
    156. A(N  45,B  46,F  47)          110.5945         0.391851   
    157. A(N  44,B  46,F  47)          110.7003         0.392608   
    158. A(N  44,B  46,N  45)          105.4471         0.359709   
    159. D(H  21,C   2,C   1,H  20)      0.1686         0.025151   
    160. D(H  21,C   2,C   1,C   5)   -179.3682         0.025151   
    161. D(C   3,C   2,C   1,C   5)      0.2529         0.025151   
    162. D(C   3,C   2,C   1,H  20)    179.7898         0.025151   
    163. D(C   4,C   3,C   2,H  21)   -179.6917         0.026132   
    164. D(H  24,C   3,C   2,C   1)   -178.5952         0.026132   
    165. D(H  24,C   3,C   2,H  21)      1.0287         0.026132   
    166. D(C   4,C   3,C   2,C   1)      0.6844         0.026132   
    167. D(C   6,C   4,P   0,C  15)   -124.4936         0.010000   
    168. D(P   0,C   4,C   3,C   2)   -179.6777         0.023548   
    169. D(C   6,C   4,P   0,C  12)    114.6373         0.010000   
    170. D(C   3,C   4,P   0,C  12)    -66.9867         0.010000   
    171. D(C   3,C   4,P   0,C  15)     53.8825         0.010000   
    172. D(C   3,C   4,P   0,C  35)    176.8067         0.010000   
    173. D(C   6,C   4,C   3,C   2)     -1.2870         0.023548   
    174. D(P   0,C   4,C   3,H  24)     -0.4041         0.023548   
    175. D(C   6,C   4,C   3,H  24)    177.9867         0.023548   
    176. D(H  22,C   5,C   1,H  20)     -0.3119         0.025498   
    177. D(H  22,C   5,C   1,C   2)    179.2248         0.025498   
    178. D(C   6,C   5,C   1,C   2)     -0.6002         0.025498   
    179. D(C   6,C   5,C   1,H  20)    179.8631         0.025498   
    180. D(H  23,C   6,C   5,H  22)     -0.2172         0.025743   
    181. D(C   4,C   6,C   5,H  22)   -179.8258         0.025743   
    182. D(C   4,C   6,C   5,C   1)      0.0008         0.025743   
    183. D(H  23,C   6,C   5,C   1)    179.6094         0.025743   
    184. D(H  23,C   6,C   4,P   0)     -0.3152         0.024276   
    185. D(H  23,C   6,C   4,C   3)   -178.6586         0.024276   
    186. D(C   5,C   6,C   4,C   3)      0.9438         0.024276   
    187. D(C   5,C   6,C   4,P   0)    179.2872         0.024276   
    188. D(C   9,C   8,C   7,C  12)     -0.1381         0.025676   
    189. D(C   9,C   8,C   7,H  34)   -179.1763         0.025676   
    190. D(H  33,C   8,C   7,H  34)      0.5037         0.025676   
    191. D(H  33,C   8,C   7,C  12)    179.5420         0.025676   
    192. D(H  32,C   9,C   8,C   7)    179.8253         0.025461   
    193. D(H  32,C   9,C   8,H  33)      0.1479         0.025461   
    194. D(C  10,C   9,C   8,H  33)   -179.4561         0.025461   
    195. D(C  10,C   9,C   8,C   7)      0.2212         0.025461   
    196. D(H  31,C  10,C   9,H  32)     -0.0640         0.025223   
    197. D(H  31,C  10,C   9,C   8)    179.5402         0.025223   
    198. D(C  11,C  10,C   9,H  32)   -179.5331         0.025223   
    199. D(C  11,C  10,C   9,C   8)      0.0710         0.025223   
    200. D(H  30,C  11,C  10,H  31)     -0.6294         0.026045   
    201. D(H  30,C  11,C  10,C   9)    178.8438         0.026045   
    202. D(C  12,C  11,C  10,H  31)   -179.9131         0.026045   
    203. D(C  12,C  11,C  10,C   9)     -0.4399         0.026045   
    204. D(C   7,C  12,C  11,H  30)   -178.7519         0.023843   
    205. D(C   7,C  12,C  11,C  10)      0.5236         0.023843   
    206. D(P   0,C  12,C  11,H  30)      2.2939         0.023843   
    207. D(C  11,C  12,C   7,H  34)    178.7884         0.024507   
    208. D(C  11,C  12,C   7,C   8)     -0.2348         0.024507   
    209. D(P   0,C  12,C   7,H  34)     -2.2804         0.024507   
    210. D(P   0,C  12,C   7,C   8)    178.6964         0.024507   
    211. D(C  11,C  12,P   0,C  15)     80.3100         0.010000   
    212. D(P   0,C  12,C  11,C  10)   -178.4306         0.023843   
    213. D(C  11,C  12,P   0,C   4)   -158.8136         0.010000   
    214. D(C   7,C  12,P   0,C  35)    140.5466         0.010000   
    215. D(C   7,C  12,P   0,C  15)    -98.6391         0.010000   
    216. D(C   7,C  12,P   0,C   4)     22.2372         0.010000   
    217. D(H  25,C  14,C  13,H  26)      0.0942         0.026058   
    218. D(H  25,C  14,C  13,C  16)    179.9809         0.026058   
    219. D(C  15,C  14,C  13,H  26)    179.8015         0.026058   
    220. D(C  15,C  14,C  13,C  16)     -0.3118         0.026058   
    221. D(C  14,C  15,P   0,C   4)   -162.2405         0.010000   
    222. D(C  18,C  15,C  14,C  13)      0.5092         0.024165   
    223. D(P   0,C  15,C  14,H  25)      2.3954         0.024165   
    224. D(P   0,C  15,C  14,C  13)   -177.3084         0.024165   
    225. D(C  18,C  15,P   0,C  12)    143.1853         0.010000   
    226. D(C  18,C  15,P   0,C   4)     19.9266         0.010000   
    227. D(C  14,C  15,P   0,C  35)     77.1724         0.010000   
    228. D(C  18,C  15,C  14,H  25)   -179.7869         0.024165   
    229. D(C  14,C  15,P   0,C  12)    -38.9818         0.010000   
    230. D(H  27,C  16,C  13,C  14)   -179.9246         0.025188   
    231. D(C  17,C  16,C  13,H  26)    179.7642         0.025188   
    232. D(H  27,C  16,C  13,H  26)     -0.0386         0.025188   
    233. D(C  17,C  16,C  13,C  14)     -0.1218         0.025188   
    234. D(H  28,C  17,C  16,H  27)     -0.0459         0.025312   
    235. D(H  28,C  17,C  16,C  13)   -179.8486         0.025312   
    236. D(C  18,C  17,C  16,H  27)   -179.8330         0.025312   
    237. D(C  18,C  17,C  16,C  13)      0.3643         0.025312   
    238. D(H  29,C  18,C  17,C  16)    178.7427         0.025906   
    239. D(C  15,C  18,C  17,H  28)   -179.9563         0.025906   
    240. D(C  15,C  18,C  17,C  16)     -0.1676         0.025906   
    241. D(H  29,C  18,C  15,C  14)   -179.1699         0.024092   
    242. D(H  29,C  18,C  15,P   0)     -1.3600         0.024092   
    243. D(C  17,C  18,C  15,C  14)     -0.2698         0.024092   
    244. D(H  29,C  18,C  17,H  28)     -1.0459         0.025906   
    245. D(C  17,C  18,C  15,P   0)    177.5401         0.024092   
    246. D(C  40,C  35,P   0,C  12)    132.2351         0.010000   
    247. D(C  40,C  35,P   0,C   4)   -106.7585         0.010000   
    248. D(C  36,C  35,P   0,C  15)   -166.8901         0.010000   
    249. D(C  36,C  35,P   0,C  12)    -48.5564         0.010000   
    250. D(C  36,C  35,P   0,C   4)     72.4500         0.010000   
    251. D(N  44,C  36,C  35,C  40)     -3.4194         0.023605   
    252. D(N  44,C  36,C  35,P   0)    177.3604         0.023605   
    253. D(C  37,C  36,C  35,C  40)    171.7751         0.023605   
    254. D(C  37,C  36,C  35,P   0)     -7.4452         0.023605   
    255. D(H  52,C  37,C  36,N  44)    178.7598         0.019823   
    256. D(H  52,C  37,C  36,C  35)      3.0996         0.019823   
    257. D(C  38,C  37,C  36,N  44)      0.4140         0.019823   
    258. D(C  38,C  37,C  36,C  35)   -175.2462         0.019823   
    259. D(H  53,C  38,C  37,H  52)      0.7891         0.027269   
    260. D(H  53,C  38,C  37,C  36)    179.1307         0.027269   
    261. D(C  39,C  38,C  37,H  52)   -178.9336         0.027269   
    262. D(C  39,C  38,C  37,C  36)     -0.5920         0.027269   
    263. D(N  44,C  39,C  38,H  53)   -179.1520         0.022423   
    264. D(N  44,C  39,C  38,C  37)      0.5758         0.022423   
    265. D(H  19,C  39,C  38,H  53)      1.2649         0.022423   
    266. D(H  19,C  39,C  38,C  37)   -179.0072         0.022423   
    267. D(N  45,C  40,C  35,C  36)      3.5467         0.024313   
    268. D(N  45,C  40,C  35,P   0)   -177.2801         0.024313   
    269. D(C  41,C  40,C  35,C  36)   -172.1089         0.024313   
    270. D(C  41,C  40,C  35,P   0)      7.0642         0.024313   
    271. D(H  51,C  41,C  40,N  45)   -178.6495         0.019393   
    272. D(H  51,C  41,C  40,C  35)     -2.6106         0.019393   
    273. D(C  42,C  41,C  40,N  45)     -0.4309         0.019393   
    274. D(C  42,C  41,C  40,C  35)    175.6080         0.019393   
    275. D(H  49,C  42,C  41,H  51)     -0.8560         0.027631   
    276. D(H  49,C  42,C  41,C  40)   -179.0815         0.027631   
    277. D(C  43,C  42,C  41,H  51)    178.7950         0.027631   
    278. D(C  43,C  42,C  41,C  40)      0.5696         0.027631   
    279. D(H  50,C  43,C  42,H  49)     -1.2639         0.022426   
    280. D(H  50,C  43,C  42,C  41)    179.0791         0.022426   
    281. D(N  45,C  43,C  42,H  49)    179.1385         0.022426   
    282. D(N  45,C  43,C  42,C  41)     -0.5185         0.022426   
    283. D(B  46,N  44,C  36,C  35)    -10.5450         0.023819   
    284. D(C  39,N  44,C  36,C  37)     -0.0600         0.023819   
    285. D(C  39,N  44,C  36,C  35)    176.2062         0.023819   
    286. D(B  46,N  44,C  39,C  38)   -173.4094         0.036590   
    287. D(B  46,N  44,C  39,H  19)      6.2123         0.036590   
    288. D(C  36,N  44,C  39,C  38)     -0.3161         0.036590   
    289. D(C  36,N  44,C  39,H  19)    179.3056         0.036590   
    290. D(B  46,N  44,C  36,C  37)    173.1888         0.023819   
    291. D(B  46,N  45,C  43,H  50)     -6.3044         0.037085   
    292. D(B  46,N  45,C  43,C  42)    173.3304         0.037085   
    293. D(C  40,N  45,C  43,H  50)   -179.3879         0.037085   
    294. D(C  40,N  45,C  43,C  42)      0.2468         0.037085   
    295. D(B  46,N  45,C  40,C  41)   -172.9678         0.022904   
    296. D(B  46,N  45,C  40,C  35)     10.3223         0.022904   
    297. D(C  43,N  45,C  40,C  41)      0.1126         0.022904   
    298. D(C  43,N  45,C  40,C  35)   -176.5972         0.022904   
    299. D(F  48,B  46,N  45,C  40)     98.1264         0.010000   
    300. D(F  47,B  46,N  45,C  43)     47.9944         0.010000   
    301. D(F  47,B  46,N  45,C  40)   -140.0653         0.010000   
    302. D(N  44,B  46,N  45,C  43)    167.7036         0.010000   
    303. D(N  44,B  46,N  45,C  40)    -20.3561         0.010000   
    304. D(F  48,B  46,N  44,C  36)    -98.1005         0.010000   
    305. D(F  47,B  46,N  44,C  39)    -48.0242         0.010000   
    306. D(F  47,B  46,N  44,C  36)    139.9386         0.010000   
    307. D(N  45,B  46,N  44,C  39)   -167.6634         0.010000   
    308. D(N  45,B  46,N  44,C  36)     20.2994         0.010000   
    -----------------------------------------------------------------

Number of atoms                         .... 54
Number of degrees of freedom            .... 308


         *************************************************************
         *                GEOMETRY OPTIMIZATION CYCLE   1            *
         *************************************************************
---------------------------------
CARTESIAN COORDINATES (ANGSTROEM)
---------------------------------
  P     -6.308327   10.968123    1.443167
  C     -7.659518   13.844988    4.759227
  C     -7.367165   14.327222    3.478591
  C     -6.955949   13.448804    2.476810
  C     -6.851364   12.073595    2.759349
  C     -7.535990   12.482059    5.042543
  C     -7.132212   11.590076    4.047059
  C     -8.455122   11.857757   -0.124440
  C     -9.347758   11.746755   -1.192842
  C     -9.295025   10.638384   -2.042762
  C     -8.349692    9.630434   -1.825070
  C     -7.456529    9.726284   -0.758041
  C     -7.507179   10.846499    0.090475
  C     -3.065663   11.551715   -0.958902
  C     -4.302107   11.125622   -0.474183
  C     -4.743095   11.574731    0.781351
  C     -2.276305   12.424236   -0.201848
  C     -2.722347   12.876799    1.043934
  C     -3.955224   12.454100    1.542670
  H     -8.875839    5.916812    3.488294
  H     -7.978034   14.537356    5.541918
  H     -7.453270   15.393314    3.258392
  H     -7.751558   12.105809    6.044770
  H     -7.033848   10.530517    4.283552
  H     -6.707095   13.833512    1.486038
  H     -4.911369   10.445704   -1.070712
  H     -2.718957   11.201453   -1.933355
  H     -1.309193   12.755736   -0.586972
  H     -2.107792   13.559762    1.634176
  H     -4.288680   12.793958    2.523620
  H     -6.734552    8.925891   -0.584325
  H     -8.311114    8.759663   -2.483076
  H     -9.997769   10.555674   -2.875159
  H    -10.090627   12.530585   -1.355448
  H     -8.516138   12.720803    0.538611
  C     -6.174164    9.262666    2.122145
  C     -7.384628    8.599031    2.396829
  C     -8.745198    9.040133    2.380286
  C     -9.524620    7.987667    2.842772
  C     -8.644154    6.916929    3.122507
  C     -4.937838    8.647816    2.374690
  C     -3.580520    9.106807    2.338491
  C     -2.779190    8.066214    2.785062
  C     -3.638308    6.981509    3.076986
  N     -7.379652    7.282552    2.862073
  N     -4.911321    7.325591    2.838184
  B     -6.130557    6.365799    2.897131
  F     -6.105257    5.615314    4.064835
  F     -6.125439    5.522945    1.783120
  H     -1.697364    8.071503    2.899649
  H     -3.384385    5.984828    3.437591
  H     -3.242570   10.093677    2.047024
  H     -9.098027   10.025373    2.088104
  H    -10.604434    7.975605    2.974630

----------------------------
CARTESIAN COORDINATES (A.U.)
----------------------------
  NO LB      ZA    FRAG     MASS         X           Y           Z
   0 P    15.0000    0    30.974  -11.921011   20.726748    2.727190
   1 C     6.0000    0    12.011  -14.474390   26.163236    8.993635
   2 C     6.0000    0    12.011  -13.921925   27.074525    6.573584
   3 C     6.0000    0    12.011  -13.144839   25.414555    4.680493
   4 C     6.0000    0    12.011  -12.947201   22.815788    5.214413
   5 C     6.0000    0    12.011  -14.240957   23.587673    9.529026
   6 C     6.0000    0    12.011  -13.477928   21.902069    7.647832
   7 C     6.0000    0    12.011  -15.977866   22.407913   -0.235158
   8 C     6.0000    0    12.011  -17.664702   22.198150   -2.254145
   9 C     6.0000    0    12.011  -17.565052   20.103631   -3.860261
  10 C     6.0000    0    12.011  -15.778631   18.198883   -3.448883
  11 C     6.0000    0    12.011  -14.090798   18.380014   -1.432490
  12 C     6.0000    0    12.011  -14.186512   20.496913    0.170973
  13 C     6.0000    0    12.011   -5.793263   21.829577   -1.812063
  14 C     6.0000    0    12.011   -8.129804   21.024379   -0.896076
  15 C     6.0000    0    12.011   -8.963151   21.873072    1.476539
  16 C     6.0000    0    12.011   -4.301593   23.478404   -0.381437
  17 C     6.0000    0    12.011   -5.144490   24.333623    1.972749
  18 C     6.0000    0    12.011   -7.474290   23.534838    2.915224
  19 H     1.0000    0     1.008  -16.772905   11.181154    6.591920
  20 H     1.0000    0     1.008  -15.076300   27.471622   10.472707
  21 H     1.0000    0     1.008  -14.084640   29.089148    6.157469
  22 H     1.0000    0     1.008  -14.648322   22.876665   11.422961
  23 H     1.0000    0     1.008  -13.292047   19.899794    8.094741
  24 H     1.0000    0     1.008  -12.674573   26.141549    2.808205
  25 H     1.0000    0     1.008   -9.281142   19.739521   -2.023353
  26 H     1.0000    0     1.008   -5.138084   21.167679   -3.653511
  27 H     1.0000    0     1.008   -2.474017   24.104848   -1.109217
  28 H     1.0000    0     1.008   -3.983149   25.624237    3.088145
  29 H     1.0000    0     1.008   -8.104431   24.177077    4.768951
  30 H     1.0000    0     1.008  -12.726459   16.867489   -1.104214
  31 H     1.0000    0     1.008  -15.705730   16.553364   -4.692334
  32 H     1.0000    0     1.008  -18.893045   19.947332   -5.433263
  33 H     1.0000    0     1.008  -19.068522   23.679374   -2.561426
  34 H     1.0000    0     1.008  -16.093169   24.038834    1.017827
  35 C     6.0000    0    12.011  -11.667479   17.503902    4.010273
  36 C     6.0000    0    12.011  -13.954925   16.249814    4.529351
  37 C     6.0000    0    12.011  -16.526029   17.083376    4.498089
  38 C     6.0000    0    12.011  -17.998923   15.094504    5.372061
  39 C     6.0000    0    12.011  -16.335084   13.071101    5.900683
  40 C     6.0000    0    12.011   -9.331161   16.342005    4.487514
  41 C     6.0000    0    12.011   -6.766202   17.209371    4.419108
  42 C     6.0000    0    12.011   -5.251907   15.242936    5.263004
  43 C     6.0000    0    12.011   -6.875406   13.193140    5.814662
  44 N     7.0000    0    14.007  -13.945521   13.762029    5.408533
  45 N     7.0000    0    14.007   -9.281052   13.843361    5.363390
  46 B     5.0000    0    10.810  -11.585073   12.029617    5.474785
  47 F     9.0000    0    18.998  -11.537263   10.611405    7.681425
  48 F     9.0000    0    18.998  -11.575402   10.436853    3.369608
  49 H     1.0000    0     1.008   -3.207554   15.252931    5.479543
  50 H     1.0000    0     1.008   -6.395561   11.309686    6.496105
  51 H     1.0000    0     1.008   -6.127569   19.074285    3.868315
  52 H     1.0000    0     1.008  -17.192780   18.945209    3.945945
  53 H     1.0000    0     1.008  -20.039477   15.071710    5.621237

--------------------------------
INTERNAL COORDINATES (ANGSTROEM)
--------------------------------
 P      0   0   0     0.000000000000     0.00000000     0.00000000
 C      1   0   0     4.593290953840     0.00000000     0.00000000
 C      2   1   0     1.399302252974    59.58052562     0.00000000
 C      3   2   1     1.394375175459   120.13426808   359.92390815
 C      4   3   2     1.407822506671   119.54462031     0.68440088
 C      2   1   3     1.397535002148    60.62942839   180.32628432
 C      6   2   1     1.396302340126   120.26682046   359.72537020
 C      1   2   3     2.803135660766    88.83488806   303.15081798
 C      8   1   2     1.396639616931   153.13325763   196.95991463
 C      9   8   1     1.397724081130   120.27010131     1.46194699
 C     10   9   8     1.398930827304   120.14735441     0.22123263
 C     11  10   9     1.394804335745   120.14899682     0.07101441
 C      8   1   2     1.402650403293    33.68688211   199.47209370
 C      1   2   3     4.077424368586   124.72242774    48.86808054
 C     14   1   2     1.394741103928    17.54595834   205.97007806
 C     15  14   1     1.404469533605   119.42885515     3.43887826
 C     14   1   2     1.399110806786   102.66036075    22.64733315
 C     17  14   1     1.398476943295   120.25720244   358.72001733
 C     18  17  14     1.395492210704   120.14084759     0.36431934
 H     12  11  10     5.878594941441   110.69876725   107.15859073
 H      2   1   3     1.092443419911   179.44918069   347.80845869
 H      3   2   1     1.091995325863   120.29967697   180.30280149
 H      6   2   1     1.092012821795   120.30641213   179.55040683
 H      7   6   2     1.090077349400   119.49534222   179.60938979
 H      4   3   2     1.091585478796   119.82172708   181.40477166
 H     15  14   1     1.090566361725   119.71107516   183.73156419
 H     14   1   2     1.091991515465   137.07894162   201.32278817
 H     17  14   1     1.092482455372   119.86268708   178.91728947
 H     18  17  14     1.092017682757   120.29060767   180.15142659
 H     19  18  17     1.090394270225   119.82061261   178.74269918
 H     12  11  10     1.091813952720   119.65529930   178.84381335
 H     11  10   9     1.092109058472   120.30476498   179.54016994
 H     10   9   8     1.092507580009   119.93825472   179.82526730
 H      9   8   1     1.092101251090   119.44624078   181.14199378
 H      8   1   2     1.090049717310    87.36225699    17.51602898
 C      1   2   3     1.840541973419   109.60116359   177.46785194
 C     36   1   2     1.407510612072   116.49981097    72.87476664
 C     37  36   1     1.430382735414   132.09581688   352.55483529
 C     38  37  36     1.388911791000   107.23278852   184.75378465
 C     20  12  11     1.089821841539    27.32008500   233.32042794
 C     36   1   2     1.403681039129   122.44243578   253.66627696
 C     41  36   1     1.433281441652   133.57290341     7.06421658
 C     42  41  36     1.387223083420   107.37872119   175.60803990
 C     43  42  41     1.414174952382   106.91132579     0.56960068
 N     40  20  12     1.341816630687   121.03354442   282.67127194
 N     44  43  42     1.340142179265   110.08154076   359.48148953
 B     45  40  20     1.549807598859   126.43830234     6.21225671
 F     47  45  40     1.388308583901   110.70026798   311.97581754
 F     47  45  40     1.396943621403   109.98745931    73.93676542
 H     43  42  41     1.087889670980   127.20660522   180.91854034
 H     44  43  42     1.089901711506   128.91612900   179.07907836
 H     42  41  36     1.083086200898   126.44660503   357.38941882
 H     38  37  36     1.086534105292   126.27213698     3.09961218
 H     39  38  37     1.087902584637   127.28376661   179.13071564

---------------------------
INTERNAL COORDINATES (A.U.)
---------------------------
 P      0   0   0     0.000000000000     0.00000000     0.00000000
 C      1   0   0     8.680061956176     0.00000000     0.00000000
 C      2   1   0     2.644298036701    59.58052562     0.00000000
 C      3   2   1     2.634987209557   120.13426808   359.92390815
 C      4   3   2     2.660398982779   119.54462031     0.68440088
 C      2   1   3     2.640958416630    60.62942839   180.32628432
 C      6   2   1     2.638629022992   120.26682046   359.72537020
 C      1   2   3     5.297158715075    88.83488806   303.15081798
 C      8   1   2     2.639266383785   153.13325763   196.95991463
 C      9   8   1     2.641315724122   120.27010131     1.46194699
 C     10   9   8     2.643596143904   120.14735441     0.22123263
 C     11  10   9     2.635798204964   120.14899682     0.07101441
 C      8   1   2     2.650625123858    33.68688211   199.47209370
 C      1   2   3     7.705215388404   124.72242774    48.86808054
 C     14   1   2     2.635678714148    17.54595834   205.97007806
 C     15  14   1     2.654062781949   119.42885515     3.43887826
 C     14   1   2     2.643936255836   102.66036075    22.64733315
 C     17  14   1     2.642738427430   120.25720244   358.72001733
 C     18  17  14     2.637098100250   120.14084759     0.36431934
 H     12  11  10    11.108934491578   110.69876725   107.15859073
 H      2   1   3     2.064418880436   179.44918069   347.80845869
 H      3   2   1     2.063572105403   120.29967697   180.30280149
 H      6   2   1     2.063605167923   120.30641213   179.55040683
 H      7   6   2     2.059947655157   119.49534222   179.60938979
 H      4   3   2     2.062797606690   119.82172708   181.40477166
 H     15  14   1     2.060871754526   119.71107516   183.73156419
 H     14   1   2     2.063564904794   137.07894162   201.32278817
 H     17  14   1     2.064492646767   119.86268708   178.91728947
 H     18  17  14     2.063614353810   120.29060767   180.15142659
 H     19  18  17     2.060546548723   119.82061261   178.74269918
 H     12  11  10     2.063229359836   119.65529930   178.84381335
 H     11  10   9     2.063787028888   120.30476498   179.54016994
 H     10   9   8     2.064540125451   119.93825472   179.82526730
 H      9   8   1     2.063772275072   119.44624078   181.14199378
 H      8   1   2     2.059895438075    87.36225699    17.51602898
 C      1   2   3     3.478120267749   109.60116359   177.46785194
 C     36   1   2     2.659809587403   116.49981097    72.87476664
 C     37  36   1     2.703031636621   132.09581688   352.55483529
 C     38  37  36     2.624662909164   107.23278852   184.75378465
 C     20  12  11     2.059464815274    27.32008500   233.32042794
 C     36   1   2     2.652572743331   122.44243578   253.66627696
 C     41  36   1     2.708509397554   133.57290341     7.06421658
 C     42  41  36     2.621471714318   107.37872119   175.60803990
 C     43  42  41     2.672403365453   106.91132579     0.56960068
 N     40  20  12     2.535665953940   121.03354442   282.67127194
 N     44  43  42     2.532501699327   110.08154076   359.48148953
 B     45  40  20     2.928711922114   126.43830234     6.21225671
 F     47  45  40     2.623523012945   110.70026798   311.97581754
 F     47  45  40     2.639840868980   109.98745931    73.93676542
 H     43  42  41     2.055813542073   127.20660522   180.91854034
 H     44  43  42     2.059615747638   128.91612900   179.07907836
 H     42  41  36     2.046736299126   126.44660503   357.38941882
 H     38  37  36     2.053251894167   126.27213698     3.09961218
 H     39  38  37     2.055837945349   127.28376661   179.13071564

---------------------
BASIS SET INFORMATION
---------------------
There are 6 groups of distinct atoms

 Group   1 Type P   : 10s7p1d contracted to 4s3p1d pattern {5311/511/1}
 Group   2 Type C   : 7s4p1d contracted to 3s2p1d pattern {511/31/1}
 Group   3 Type H   : 4s1p contracted to 2s1p pattern {31/1}
 Group   4 Type N   : 7s4p1d contracted to 3s2p1d pattern {511/31/1}
 Group   5 Type B   : 7s4p1d contracted to 3s2p1d pattern {511/31/1}
 Group   6 Type F   : 7s4p1d contracted to 3s2p1d pattern {511/31/1}

Atom   0P    basis set group =>   1
Atom   1C    basis set group =>   2
Atom   2C    basis set group =>   2
Atom   3C    basis set group =>   2
Atom   4C    basis set group =>   2
Atom   5C    basis set group =>   2
Atom   6C    basis set group =>   2
Atom   7C    basis set group =>   2
Atom   8C    basis set group =>   2
Atom   9C    basis set group =>   2
Atom  10C    basis set group =>   2
Atom  11C    basis set group =>   2
Atom  12C    basis set group =>   2
Atom  13C    basis set group =>   2
Atom  14C    basis set group =>   2
Atom  15C    basis set group =>   2
Atom  16C    basis set group =>   2
Atom  17C    basis set group =>   2
Atom  18C    basis set group =>   2
Atom  19H    basis set group =>   3
Atom  20H    basis set group =>   3
Atom  21H    basis set group =>   3
Atom  22H    basis set group =>   3
Atom  23H    basis set group =>   3
Atom  24H    basis set group =>   3
Atom  25H    basis set group =>   3
Atom  26H    basis set group =>   3
Atom  27H    basis set group =>   3
Atom  28H    basis set group =>   3
Atom  29H    basis set group =>   3
Atom  30H    basis set group =>   3
Atom  31H    basis set group =>   3
Atom  32H    basis set group =>   3
Atom  33H    basis set group =>   3
Atom  34H    basis set group =>   3
Atom  35C    basis set group =>   2
Atom  36C    basis set group =>   2
Atom  37C    basis set group =>   2
Atom  38C    basis set group =>   2
Atom  39C    basis set group =>   2
Atom  40C    basis set group =>   2
Atom  41C    basis set group =>   2
Atom  42C    basis set group =>   2
Atom  43C    basis set group =>   2
Atom  44N    basis set group =>   4
Atom  45N    basis set group =>   4
Atom  46B    basis set group =>   5
Atom  47F    basis set group =>   6
Atom  48F    basis set group =>   6
Atom  49H    basis set group =>   3
Atom  50H    basis set group =>   3
Atom  51H    basis set group =>   3
Atom  52H    basis set group =>   3
Atom  53H    basis set group =>   3
---------------------------------
AUXILIARY/J BASIS SET INFORMATION
---------------------------------
There are 6 groups of distinct atoms

 Group   1 Type P   : 14s5p5d2f1g contracted to 8s4p3d1f1g pattern {71111111/2111/311/2/1}
 Group   2 Type C   : 12s5p4d2f1g contracted to 6s4p3d1f1g pattern {711111/2111/211/2/1}
 Group   3 Type H   : 5s2p1d contracted to 3s1p1d pattern {311/2/1}
 Group   4 Type N   : 12s5p4d2f1g contracted to 6s4p3d1f1g pattern {711111/2111/211/2/1}
 Group   5 Type B   : 12s5p4d2f1g contracted to 6s4p3d1f1g pattern {711111/2111/211/2/1}
 Group   6 Type F   : 12s5p4d2f1g contracted to 6s4p3d1f1g pattern {711111/2111/211/2/1}

Atom   0P    basis set group =>   1
Atom   1C    basis set group =>   2
Atom   2C    basis set group =>   2
Atom   3C    basis set group =>   2
Atom   4C    basis set group =>   2
Atom   5C    basis set group =>   2
Atom   6C    basis set group =>   2
Atom   7C    basis set group =>   2
Atom   8C    basis set group =>   2
Atom   9C    basis set group =>   2
Atom  10C    basis set group =>   2
Atom  11C    basis set group =>   2
Atom  12C    basis set group =>   2
Atom  13C    basis set group =>   2
Atom  14C    basis set group =>   2
Atom  15C    basis set group =>   2
Atom  16C    basis set group =>   2
Atom  17C    basis set group =>   2
Atom  18C    basis set group =>   2
Atom  19H    basis set group =>   3
Atom  20H    basis set group =>   3
Atom  21H    basis set group =>   3
Atom  22H    basis set group =>   3
Atom  23H    basis set group =>   3
Atom  24H    basis set group =>   3
Atom  25H    basis set group =>   3
Atom  26H    basis set group =>   3
Atom  27H    basis set group =>   3
Atom  28H    basis set group =>   3
Atom  29H    basis set group =>   3
Atom  30H    basis set group =>   3
Atom  31H    basis set group =>   3
Atom  32H    basis set group =>   3
Atom  33H    basis set group =>   3
Atom  34H    basis set group =>   3
Atom  35C    basis set group =>   2
Atom  36C    basis set group =>   2
Atom  37C    basis set group =>   2
Atom  38C    basis set group =>   2
Atom  39C    basis set group =>   2
Atom  40C    basis set group =>   2
Atom  41C    basis set group =>   2
Atom  42C    basis set group =>   2
Atom  43C    basis set group =>   2
Atom  44N    basis set group =>   4
Atom  45N    basis set group =>   4
Atom  46B    basis set group =>   5
Atom  47F    basis set group =>   6
Atom  48F    basis set group =>   6
Atom  49H    basis set group =>   3
Atom  50H    basis set group =>   3
Atom  51H    basis set group =>   3
Atom  52H    basis set group =>   3
Atom  53H    basis set group =>   3


           ************************************************************
           *        Program running with 4 parallel MPI-processes     *
           *              working on a common directory               *
           ************************************************************
------------------------------------------------------------------------------
                             ORCA STARTUP CALCULATIONS
                           -- RI-GTO INTEGRALS CHOSEN --
------------------------------------------------------------------------------
------------------------------------------------------------------------------
                   ___                                                        
                  /   \      - P O W E R E D   B Y -                         
                 /     \                                                     
                 |  |  |   _    _      __       _____    __    __             
                 |  |  |  | |  | |    /  \     |  _  \  |  |  /  |          
                  \  \/   | |  | |   /    \    | | | |  |  | /  /          
                 / \  \   | |__| |  /  /\  \   | |_| |  |  |/  /          
                |  |  |   |  __  | /  /__\  \  |    /   |      \           
                |  |  |   | |  | | |   __   |  |    \   |  |\   \          
                \     /   | |  | | |  |  |  |  | |\  \  |  | \   \       
                 \___/    |_|  |_| |__|  |__|  |_| \__\ |__|  \__/        
                                                                              
                      - O R C A' S   B I G   F R I E N D -                    
                                      &                                       
                       - I N T E G R A L  F E E D E R -                       
                                                                              
 v1 FN, 2020, v2 2021, v3 2022-2024                                           
------------------------------------------------------------------------------


----------------------
SHARK INTEGRAL PACKAGE
----------------------

Number of atoms                             ...     54
Number of basis functions                   ...    571
Number of shells                            ...    263
Maximum angular momentum                    ...      2
Integral batch strategy                     ... SHARK/LIBINT Hybrid
RI-J (if used) integral strategy            ... SPLIT-RIJ (Revised 2003 algorithm where possible)
Printlevel                                  ...      1
Contraction scheme used                     ... SEGMENTED contraction
Prescreening option                         ... SCHWARTZ
   Thresh                                   ... 2.500e-11
   Tcut                                     ... 2.500e-12
   Tpresel                                  ... 2.500e-12 
Coulomb Range Separation                    ... NOT USED
Exchange Range Separation                   ... NOT USED
Multipole approximations                    ... NOT USED
Finite Nucleus Model                        ... NOT USED
CABS basis                                  ... NOT available
Auxiliary Coulomb fitting basis             ... AVAILABLE
   # of basis functions in Aux-J            ...   1850
   # of shells in Aux-J                     ...    602
   Maximum angular momentum in Aux-J        ...      4
Auxiliary J/K fitting basis                 ... NOT available
Auxiliary Correlation fitting basis         ... NOT available
Auxiliary 'external' fitting basis          ... NOT available

Checking pre-screening integrals            ... done (  0.0 sec) Dimension = 263
   => SHARK Basis and OBASIS are compatible. Storing Pre-screening
Shell pair information
Shell pair cut-off parameter TPreSel        ...   2.5e-12
Total number of shell pairs                 ...     34716
Shell pairs after pre-screening             ...     24472
Total number of primitive shell pairs       ...    129280
Primitive shell pairs kept                  ...     55129
          la=0 lb=0:   7330 shell pairs
          la=1 lb=0:   9139 shell pairs
          la=1 lb=1:   2922 shell pairs
          la=2 lb=0:   2958 shell pairs
          la=2 lb=1:   1854 shell pairs
          la=2 lb=2:    269 shell pairs

Checking whether 4 symmetric matrices of dimension 571 fit in memory
:Max Core in MB      =   4096.00
 MB in use           =     33.30
 MB left             =   4062.70
 MB needed           =      4.98
 Data fit in memory  = YES
Calculating RI/J V-Matrix + Cholesky decomp.... done (  0.2 sec)
Calculating Nuclear repulsion               ... done (  0.0 sec) ENN=   3540.298905850152 Eh

Diagonalization of the overlap matrix:
Smallest eigenvalue                        ... 2.684e-04
Time for diagonalization                   ...    0.066 sec
Threshold for overlap eigenvalues          ... 1.000e-07
Number of eigenvalues below threshold      ... 0
Time for construction of square roots      ...    0.027 sec
Total time needed                          ...    0.097 sec

-------------------
DFT GRID GENERATION
-------------------

General Integration Accuracy     IntAcc      ... 4.388
Radial Grid Type                 RadialGrid  ... OptM3 with GC (2021)
Angular Grid (max. ang.)         AngularGrid ... 4 (Lebedev-302)
Angular grid pruning method      GridPruning ... 4 (adaptive)
Weight generation scheme         WeightScheme... mBecke (2022)
Basis function cutoff            BFCut       ... 1.0000e-11
Integration weight cutoff        WCut        ... 1.0000e-14
Partially contracted basis set               ... off
Rotationally invariant grid construction     ... off
Angular grids for H and He will be reduced by one unit

Total number of grid points                  ...   263640
Total number of batches                      ...     4148
Average number of points per batch           ...       63
Average number of grid points per atom       ...     4882

--------------------
COSX GRID GENERATION
--------------------

GRIDX 1
-------
General Integration Accuracy     IntAcc      ... 3.816
Radial Grid Type                 RadialGrid  ... OptM3 with GC (2021)
Angular Grid (max. ang.)         AngularGrid ... 1 (Lebedev-50)
Angular grid pruning method      GridPruning ... 4 (adaptive)
Weight generation scheme         WeightScheme... mBecke (2022)
Basis function cutoff            BFCut       ... 1.0000e-11
Integration weight cutoff        WCut        ... 1.0000e-14
Partially contracted basis set               ... on
Rotationally invariant grid construction     ... off
Angular grids for H and He will be reduced by one unit

Total number of grid points                  ...    34273
Total number of batches                      ...      286
Average number of points per batch           ...      119
Average number of grid points per atom       ...      635
UseSFitting                                  ... on

GRIDX 2
-------
General Integration Accuracy     IntAcc      ... 4.020
Radial Grid Type                 RadialGrid  ... OptM3 with GC (2021)
Angular Grid (max. ang.)         AngularGrid ... 2 (Lebedev-110)
Angular grid pruning method      GridPruning ... 4 (adaptive)
Weight generation scheme         WeightScheme... mBecke (2022)
Basis function cutoff            BFCut       ... 1.0000e-11
Integration weight cutoff        WCut        ... 1.0000e-14
Partially contracted basis set               ... on
Rotationally invariant grid construction     ... off
Angular grids for H and He will be reduced by one unit

Total number of grid points                  ...    72461
Total number of batches                      ...      594
Average number of points per batch           ...      121
Average number of grid points per atom       ...     1342
UseSFitting                                  ... on

GRIDX 3
-------
General Integration Accuracy     IntAcc      ... 4.338
Radial Grid Type                 RadialGrid  ... OptM3 with GC (2021)
Angular Grid (max. ang.)         AngularGrid ... 3 (Lebedev-194)
Angular grid pruning method      GridPruning ... 4 (adaptive)
Weight generation scheme         WeightScheme... mBecke (2022)
Basis function cutoff            BFCut       ... 1.0000e-11
Integration weight cutoff        WCut        ... 1.0000e-14
Partially contracted basis set               ... on
Rotationally invariant grid construction     ... off
Angular grids for H and He will be reduced by one unit

Total number of grid points                  ...   158641
Total number of batches                      ...     1267
Average number of points per batch           ...      125
Average number of grid points per atom       ...     2938
UseSFitting                                  ... on
Grids setup in   4.9 sec
Initializing property integral containers    ... done (  0.0 sec)

SHARK setup successfully completed in   5.8 seconds

Maximum memory used throughout the entire STARTUP-calculation: 90.4 MB


           ************************************************************
           *        Program running with 4 parallel MPI-processes     *
           *              working on a common directory               *
           ************************************************************
-------------------------------------------------------------------------------
                                 ORCA GUESS
                   Start orbitals & Density for SCF / CASSCF
-------------------------------------------------------------------------------

------------
SCF SETTINGS
------------
Hamiltonian:
 Density Functional     Method          .... DFT(GTOs)
 Exchange Functional    Exchange        .... B88
   X-Alpha parameter    XAlpha          ....  0.666667
   Becke's b parameter  XBeta           ....  0.004200
 Correlation Functional Correlation     .... LYP
 LDA part of GGA corr.  LDAOpt          .... VWN-5
 Gradients option       PostSCFGGA      .... off
 Hybrid DFT is turned on
   Fraction HF Exchange ScalHFX         ....  0.200000
   Scaling of DF-GGA-X  ScalDFX         ....  0.720000
   Scaling of DF-GGA-C  ScalDFC         ....  0.810000
   Scaling of DF-LDA-C  ScalLDAC        ....  1.000000
   Perturbative correction              ....  0.000000
   NL short-range parameter             ....  4.800000
 RI-approximation to the Coulomb term is turned on
   Number of AuxJ basis functions       .... 1850
   RIJ-COSX (HFX calculated with COS-X)).... on


General Settings:
 Integral files         IntName         .... TPP_S1
 Hartree-Fock type      HFTyp           .... UHF
 Total Charge           Charge          ....    1
 Multiplicity           Mult            ....    1
 Number of Electrons    NEL             ....  234
 Basis Dimension        Dim             ....  571
 Nuclear Repulsion      ENuc            ....   3540.2989058502 Eh

Convergence Acceleration:
 AO-DIIS                CNVDIIS         .... on
   Start iteration      DIISMaxIt       ....     0
   Startup error        DIISStart       ....  0.200000
   # of expansion vecs  DIISMaxEq       ....     5
   Bias factor          DIISBfac        ....   1.050
   Max. coefficient     DIISMaxC        ....  10.000
 MO-DIIS                CNVKDIIS        .... off
 Trust-Rad. Augm. Hess. CNVTRAH         .... auto
   Auto Start mean grad. ratio tolernc. ....  1.125000
   Auto Start start iteration           ....    50
   Auto Start num. interpolation iter.  ....    10
   Max. Number of Micro iterations      ....    24
   Max. Number of Macro iterations      .... Maxiter - #DIIS iter
   Number of Davidson start vectors     ....     2
   Converg. threshold    (grad. norm)   ....   1.000e-05
   Grad. Scal. Fac. for Micro threshold ....   0.100
   Minimum threshold for Micro iter.    ....   1.000e-02
   NR start threshold (gradient norm)   ....   1.000e-04
   Initial trust radius                 ....   0.400
   Minimum AH scaling param. (alpha)    ....   1.000
   Maximum AH scaling param. (alpha)    .... 1000.000
   Quad. conv. algorithm                .... NR
   White noise on init. David. guess    .... on
   Maximum white noise                  ....   0.010
   Pseudo random numbers                .... off
   Inactive MOs                         .... canonical
   Orbital update algorithm             .... Taylor
   Preconditioner                       .... Diag
   Full preconditioner red. dimension   ....   250
 SOSCF                 CNVSOSCF           .... on
   Start iteration     SOSCFMaxIt         ....   150
   Startup grad/error  SOSCFStart         ....  0.001000
   Hessian update      SOSCFHessUp        .... L-BFGS
   Autom. constraints  SOSCFAutoConstrain .... off
 Level Shifting         CNVShift        .... on
   Level shift para.    LevelShift      ....    0.2000
   Turn off err/grad.   ShiftErr        ....    0.0000
 Zerner damping         CNVZerner       .... off
 Static damping         CNVDamp         .... on
   Fraction old density DampFac         ....    0.7000
   Max. Damping (<1)    DampMax         ....    0.9800
   Min. Damping (>=0)   DampMin         ....    0.0000
   Turn off err/grad.   DampErr         ....    0.0300

SCF Procedure:
 Maximum # iterations   MaxIter         ....   500
 SCF integral mode      SCFMode         .... Direct
   Integral package                     .... SHARK and LIBINT hybrid scheme
 Reset frequency        DirectResetFreq ....    20
 Integral Threshold     Thresh          ....  2.500e-11 Eh
 Primitive CutOff       TCut            ....  2.500e-12 Eh

Convergence Tolerance:
 Convergence Check Mode ConvCheckMode   .... Total+1el-Energy
 Convergence forced     ConvForced      .... 0
 Energy Change          TolE            ....  1.000e-08 Eh
 1-El. energy change                    ....  1.000e-05 Eh
 Orbital Gradient       TolG            ....  1.000e-05
 Orbital Rotation angle TolX            ....  1.000e-05
 DIIS Error             TolErr          ....  5.000e-07

------------------------------
INITIAL GUESS: MODEL POTENTIAL
------------------------------
Loading Hartree-Fock densities                     ... done
Calculating cut-offs                               ... done
Initializing the effective Hamiltonian             ... done
Setting up the integral package (SHARK)            ... done
Starting the Coulomb interaction                   ... done (   0.9 sec)
Making the grid                                    ... done (   0.7 sec)
Mapping shells                                     ... done
Starting the XC term evaluation                    ... done (   0.4 sec)
  promolecular density results
     # of electrons  =    235.001425654
     EX              =   -204.876084371
     EC              =     -8.132111874
     EX+EC           =   -213.008196245
Transforming the Hamiltonian                       ... done (   0.0 sec)
Diagonalizing the Hamiltonian                      ... done (   0.1 sec)
Back transforming the eigenvectors                 ... done (   0.0 sec)
Now organizing SCF variables                       ... done
                      ------------------
                      INITIAL GUESS DONE (   2.1 sec)
                      ------------------
             **** ENERGY FILE WAS UPDATED (TPP_S1.en.tmp) ****
Finished Guess after   2.8 sec
Maximum memory used throughout the entire GUESS-calculation: 45.3 MB


           ************************************************************
           *        Program running with 4 parallel MPI-processes     *
           *              working on a common directory               *
           ************************************************************

-------------------------------------------------------------------------------------------
                                      ORCA LEAN-SCF
                              memory conserving SCF solver
-------------------------------------------------------------------------------------------

--------------------
CPCM SOLVATION MODEL
--------------------
CPCM parameters:
  Epsilon                                         ...      78.3550
  Refrac                                          ...       1.3328
  Rsolv                                           ...       1.3000
  Surface type                                    ... GAUSSIAN VDW
  Discretization scheme                           ... Constant charge density
    Threshold for H atoms                         ...       5.0000 (charges/Ang^2)
    Threshold for non-H atoms                     ...       5.0000 (charges/Ang^2)
  Epsilon function type                           ...         CPCM
Solvent:                                          ... WATER
SMD-CDS solvent descriptors:
  Soln                                            ...       1.3328
  Soln25                                          ...       1.3323
  Sola                                            ...       0.0000
  Solb                                            ...       0.0000
  Solg                                            ...       0.0000
  Solc                                            ...       0.0000
  Solh                                            ...       0.0000
Radii:
  Scheme                                          ... Element-dependent radii
  Radius for P  used is    4.0062 Bohr (=   2.1200 Ang.)
  Radius for C  used is    3.4960 Bohr (=   1.8500 Ang.)
  Radius for H  used is    2.2677 Bohr (=   1.2000 Ang.)
  Radius for N  used is    3.5716 Bohr (=   1.8900 Ang.)
  Radius for B  used is    3.6283 Bohr (=   1.9200 Ang.)
  Radius for F  used is    3.2692 Bohr (=   1.7300 Ang.)
Calculating surface                               ...        done! (  0.0s)
Cavity surface points                             ...         4111
Cavity Volume                                     ...    3015.0774
Cavity Surface-area                               ...    1583.9529
Calculating surface distance matrix               ...        done! (  0.2s)
Performing Cholesky decomposition & store         ...        done! (  0.7s)
Overall time for CPCM initialization              ...                 0.8s

----------------------------------------D-I-I-S--------------------------------------------
Iteration    Energy (Eh)           Delta-E    RMSDP     MaxDP     DIISErr   Damp  Time(sec)
-------------------------------------------------------------------------------------------
               ***  Starting incremental Fock matrix formation  ***
    1    -1714.4239227420061980     0.00e+00  1.93e-03  6.70e-02  9.02e-02  0.700  27.6
Warning: op=0 Small HOMO/LUMO gap (   0.095) - skipping pre-diagonalization
         Will do a full diagonalization
    2    -1714.6819030786004987    -2.58e-01  1.22e-03  2.59e-02  3.78e-02  0.700  16.5
[...]
      py      :    -0.000000
      dz2     :    -0.000000  d :     0.000000
      dxz     :     0.000000
      dyz     :     0.000000
      dx2y2   :     0.000000
      dxy     :     0.000000

 47 F s       :    -0.000000  s :    -0.000000
      pz      :    -0.000000  p :    -0.000000
      px      :     0.000000
      py      :    -0.000000
      dz2     :     0.000000  d :     0.000000
      dxz     :     0.000000
      dyz     :     0.000000
      dx2y2   :    -0.000000
      dxy     :     0.000000

 48 F s       :     0.000000  s :     0.000000
      pz      :    -0.000000  p :     0.000000
      px      :     0.000000
      py      :    -0.000000
      dz2     :     0.000000  d :    -0.000000
      dxz     :    -0.000000
      dyz     :    -0.000000
      dx2y2   :     0.000000
      dxy     :    -0.000000

 49 H s       :    -0.000000  s :    -0.000000
      pz      :    -0.000000  p :     0.000000
      px      :     0.000000
      py      :    -0.000000

 50 H s       :     0.000000  s :     0.000000
      pz      :     0.000000  p :     0.000000
      px      :     0.000000
      py      :     0.000000

 51 H s       :     0.000000  s :     0.000000
      pz      :     0.000000  p :    -0.000000
      px      :    -0.000000
      py      :    -0.000000

 52 H s       :    -0.000000  s :    -0.000000
      pz      :     0.000000  p :     0.000000
      px      :     0.000000
      py      :     0.000000

 53 H s       :     0.000000  s :     0.000000
      pz      :    -0.000000  p :    -0.000000
      px      :    -0.000000
      py      :     0.000000



                      *****************************
                      * MAYER POPULATION ANALYSIS *
                      *****************************

  NA   - Mulliken gross atomic population
  ZA   - Total nuclear charge
  QA   - Mulliken gross atomic charge
  VA   - Mayer's total valence
  BVA  - Mayer's bonded valence
  FA   - Mayer's free valence

  ATOM       NA         ZA         QA         VA         BVA        FA
  0 P     14.3177    15.0000     0.6823     4.1943     4.1943     0.0000
  1 C      5.9664     6.0000     0.0336     3.7999     3.7999     0.0000
  2 C      5.9980     6.0000     0.0020     3.8566     3.8566     0.0000
  3 C      5.9619     6.0000     0.0381     3.8584     3.8584     0.0000
  4 C      6.1552     6.0000    -0.1552     3.8253     3.8253    -0.0000
  5 C      5.9926     6.0000     0.0074     3.8471     3.8471    -0.0000
  6 C      5.9655     6.0000     0.0345     3.8854     3.8854     0.0000
  7 C      5.9623     6.0000     0.0377     3.8762     3.8762    -0.0000
  8 C      5.9972     6.0000     0.0028     3.8548     3.8548    -0.0000
  9 C      5.9683     6.0000     0.0317     3.7933     3.7933    -0.0000
 10 C      5.9993     6.0000     0.0007     3.8568     3.8568    -0.0000
 11 C      5.9541     6.0000     0.0459     3.8407     3.8407     0.0000
 12 C      6.1562     6.0000    -0.1562     3.8294     3.8294    -0.0000
 13 C      5.9919     6.0000     0.0081     3.8544     3.8544    -0.0000
 14 C      5.9648     6.0000     0.0352     3.8591     3.8591     0.0000
 15 C      6.1648     6.0000    -0.1648     3.8025     3.8025    -0.0000
 16 C      5.9646     6.0000     0.0354     3.7978     3.7978    -0.0000
 17 C      5.9904     6.0000     0.0096     3.8445     3.8445    -0.0000
 18 C      5.9610     6.0000     0.0390     3.8499     3.8499    -0.0000
 19 H      0.9377     1.0000     0.0623     0.9922     0.9922    -0.0000
 20 H      0.9726     1.0000     0.0274     0.9793     0.9793     0.0000
 21 H      0.9740     1.0000     0.0260     0.9804     0.9804     0.0000
 22 H      0.9760     1.0000     0.0240     0.9805     0.9805    -0.0000
 23 H      0.9594     1.0000     0.0406     0.9852     0.9852     0.0000
 24 H      0.9548     1.0000     0.0452     0.9909     0.9909     0.0000
 25 H      0.9751     1.0000     0.0249     1.0026     1.0026    -0.0000
 26 H      0.9753     1.0000     0.0247     0.9800     0.9800     0.0000
 27 H      0.9719     1.0000     0.0281     0.9794     0.9794    -0.0000
 28 H      0.9749     1.0000     0.0251     0.9805     0.9805    -0.0000
 29 H      0.9596     1.0000     0.0404     0.9890     0.9890    -0.0000
 30 H      0.9505     1.0000     0.0495     0.9844     0.9844     0.0000
 31 H      0.9759     1.0000     0.0241     0.9805     0.9805    -0.0000
 32 H      0.9741     1.0000     0.0259     0.9793     0.9793     0.0000
 33 H      0.9777     1.0000     0.0223     0.9801     0.9801     0.0000
 34 H      0.9782     1.0000     0.0218     1.0030     1.0030    -0.0000
 35 C      6.0844     6.0000    -0.0844     3.6625     3.6625     0.0000
 36 C      5.9585     6.0000     0.0415     3.9832     3.9832     0.0000
 37 C      5.9819     6.0000     0.0181     3.7989     3.7989     0.0000
 38 C      6.0165     6.0000    -0.0165     3.7856     3.7856     0.0000
 39 C      5.8706     6.0000     0.1294     3.8498     3.8498    -0.0000
 40 C      5.9344     6.0000     0.0656     3.9856     3.9856     0.0000
 41 C      5.9844     6.0000     0.0156     3.7906     3.7906     0.0000
 42 C      6.0158     6.0000    -0.0158     3.7782     3.7782     0.0000
 43 C      5.8655     6.0000     0.1345     3.8484     3.8484    -0.0000
 44 N      7.1119     7.0000    -0.1119     3.4282     3.4282     0.0000
 45 N      7.1185     7.0000    -0.1185     3.4194     3.4194    -0.0000
 46 B      4.8673     5.0000     0.1327     4.2119     4.2119     0.0000
 47 F      9.2208     9.0000    -0.2208     1.2230     1.2230    -0.0000
 48 F      9.2146     9.0000    -0.2146     1.2429     1.2429     0.0000
 49 H      0.9728     1.0000     0.0272     0.9899     0.9899    -0.0000
 50 H      0.9357     1.0000     0.0643     0.9923     0.9923    -0.0000
 51 H      0.9856     1.0000     0.0144     1.0035     1.0035     0.0000
 52 H      0.9678     1.0000     0.0322     1.0010     1.0010     0.0000
 53 H      0.9729     1.0000     0.0271     0.9902     0.9902     0.0000

  Mayer bond orders larger than 0.100000
B(  0-P ,  4-C ) :   1.0057 B(  0-P , 12-C ) :   0.9992 B(  0-P , 15-C ) :   0.9902 
B(  0-P , 35-C ) :   0.9503 B(  1-C ,  2-C ) :   1.3606 B(  1-C ,  5-C ) :   1.3715 
B(  1-C , 20-H ) :   0.9915 B(  2-C ,  3-C ) :   1.4017 B(  2-C , 21-H ) :   0.9928 
B(  3-C ,  4-C ) :   1.3228 B(  3-C , 24-H ) :   0.9811 B(  4-C ,  6-C ) :   1.3641 
B(  5-C ,  6-C ) :   1.3920 B(  5-C , 22-H ) :   0.9887 B(  6-C , 23-H ) :   0.9804 
B(  7-C ,  8-C ) :   1.3982 B(  7-C , 12-C ) :   1.3606 B(  7-C , 34-H ) :   0.9824 
B(  8-C ,  9-C ) :   1.3674 B(  8-C , 33-H ) :   0.9903 B(  9-C , 10-C ) :   1.3610 
B(  9-C , 32-H ) :   0.9921 B( 10-C , 11-C ) :   1.4012 B( 10-C , 31-H ) :   0.9927 
B( 11-C , 12-C ) :   1.3364 B( 11-C , 30-H ) :   0.9787 B( 13-C , 14-C ) :   1.4062 
B( 13-C , 16-C ) :   1.3600 B( 13-C , 26-H ) :   0.9908 B( 14-C , 15-C ) :   1.3376 
B( 14-C , 25-H ) :   0.9867 B( 15-C , 18-C ) :   1.3451 B( 16-C , 17-C ) :   1.3662 
B( 16-C , 27-H ) :   0.9909 B( 17-C , 18-C ) :   1.3876 B( 17-C , 28-H ) :   0.9914 
B( 18-C , 29-H ) :   0.9841 B( 19-H , 39-C ) :   0.9814 B( 35-C , 36-C ) :   1.2874 
B( 35-C , 40-C ) :   1.3171 B( 36-C , 37-C ) :   1.2323 B( 36-C , 44-N ) :   1.2008 
B( 37-C , 38-C ) :   1.4513 B( 37-C , 52-H ) :   0.9864 B( 38-C , 39-C ) :   1.2555 
B( 38-C , 53-H ) :   1.0042 B( 39-C , 44-N ) :   1.3675 B( 40-C , 41-C ) :   1.2093 
B( 40-C , 45-N ) :   1.1930 B( 41-C , 42-C ) :   1.4537 B( 41-C , 51-H ) :   1.0035 
B( 42-C , 43-C ) :   1.2472 B( 42-C , 49-H ) :   1.0037 B( 43-C , 45-N ) :   1.3728 
B( 43-C , 50-H ) :   0.9797 B( 44-N , 46-B ) :   0.8064 B( 45-N , 46-B ) :   0.8030 
B( 46-B , 47-F ) :   1.1939 B( 46-B , 48-F ) :   1.2499 

-------
TIMINGS
-------

Total SCF time: 0 days 0 hours 2 min 24 sec 

Total time                  ....     144.741 sec
Sum of individual times     ....     135.012 sec  ( 93.3%)

SCF preparation             ....       1.657 sec  (  1.1%)
Fock matrix formation       ....     131.278 sec  ( 90.7%)
  Startup                   ....       0.035 sec  (  0.0% of F)
  Split-RI-J                ....       8.847 sec  (  6.7% of F)
  Chain of spheres X        ....     107.723 sec  ( 82.1% of F)
  XC integration            ....      13.461 sec  ( 10.3% of F)
    Basis function eval.    ....       2.771 sec  ( 20.6% of XC)
    Density eval.           ....       5.015 sec  ( 37.3% of XC)
    XC-Functional eval.     ....       0.226 sec  (  1.7% of XC)
    XC-Potential eval.      ....       4.300 sec  ( 31.9% of XC)
  CPCM terms                ....      10.388 sec  (  7.9% of F)
Diagonalization             ....       0.000 sec  (  0.0%)
Density matrix formation    ....       0.152 sec  (  0.1%)
Total Energy calculation    ....       0.067 sec  (  0.0%)
Population analysis         ....       0.261 sec  (  0.2%)
Orbital Transformation      ....       0.301 sec  (  0.2%)
Orbital Orthonormalization  ....       0.000 sec  (  0.0%)
DIIS solution               ....       0.360 sec  (  0.2%)
SOSCF solution              ....       0.936 sec  (  0.6%)
Finished LeanSCF after 145.3 sec

Maximum memory used throughout the entire LEANSCF-calculation: 102.2 MB


-------------------------------------------------------------------------------
                          DFT DISPERSION CORRECTION                            
                                                                               
                              DFTD3 V3.1  Rev 1                                
                          USING Becke-Johnson damping                          
-------------------------------------------------------------------------------
The B3LYP functional is recognized
Active option DFTDOPT                   ...         4   

molecular C6(AA) [au] = 40492.844552 


            DFT-D V3
 parameters
 s6 scaling factor         :     1.0000 
 a1 scaling factor         :     0.3981 
 s8 scaling factor         :     1.9889 
 a2 scaling factor         :     4.4211 
 ad hoc parameters k1-k3   :    16.0000     1.3333    -4.0000 

 Edisp/kcal,au: -97.696697041437  -0.155689580250 
 E6   /kcal   : -44.838742728 
 E8   /kcal   : -52.857954313 
 % E8         :  54.104136490 

-------------------------   ----------------
Dispersion correction           -0.155689580
-------------------------   ----------------


-------------------------   --------------------
FINAL SINGLE POINT ENERGY     -1715.133210189626
-------------------------   --------------------

                                *** OPTIMIZATION RUN DONE ***



           ************************************************************
           *        Program running with 4 parallel MPI-processes     *
           *              working on a common directory               *
           ************************************************************

------------------------------------------------------------------------------
                              ORCA PROPERTY CALCULATIONS
------------------------------------------------------------------------------

GBWName                                 ... TPP_S1.gbw
Number of atoms                         ...     54
Number of basis functions               ...    571
Max core memory                         ...   4096 MB

Electric properties:
Dipole moment                           ... YES
Quadrupole moment                       ...  NO
Static polarizability (Dipole/Dipole)   ...  NO
Static polarizability (Dipole/Quad.)    ...  NO
Static polarizability (Quad./Quad.)     ...  NO
Static polarizability (Velocity)        ...  NO
Static hyperpolarizability              ...  NO

Atomic electric properties:
Dipole moment                           ...  NO
Quadrupole moment                       ...  NO
Static polarizability                   ...  NO

Choice of electric origin               ... Center of mass
Position of electric origin             ...   -11.867788    18.863235     3.341916

General magnetic properties:
Magnetizability                         ...  NO

EPR properties:
g-Tensor (aka g-matrix)                 ...  NO
Zero-Field splitting spin-orbit         ...  NO
Zero-field splitting spin-spin          ...  NO
Hyperfine couplings                     ...  NO (   0 nuclei)
Quadrupole couplings                    ...  NO (   0 nuclei)
Contact density                         ...  NO (   0 nuclei)

NMR properties:
Chemical shifts                         ...  NO (   0 nuclei)
Spin-rotation constants                 ...  NO (   0 nuclei)
Spin-spin couplings                     ...  NO (   0 nuclei,    0 pairs)

Choice of magnetic origin               ... GIAO
Position of magnetic origin             ...     0.000000     0.000000     0.000000

Properties with geometric perturbations:
SCF Hessian                             ...  NO
IR spectrum                             ...  NO
VCD spectrum                            ...  NO
X-ray spectroscopy properties:
SCF XES/XAS/RIXS spectra                ...  NO

SCF SOC stabilization energy            ...  NO
Diagonal Born-Oppenheimer correction    ...  NO

-------------
DIPOLE MOMENT
-------------

Method             : SCF
Type of density    : Electron Density
Multiplicity       :   1
Irrep              :   0
Energy             : -1714.9775206093754605 Eh
Basis              : AO
                                X                 Y                 Z
Electronic contribution:      1.304456772     -23.452367909       7.207515045
Nuclear contribution   :     -1.267848709      27.916837952      -8.105613847
                        -----------------------------------------
Total Dipole Moment    :      0.036608063       4.464470044      -0.898098802
                        -----------------------------------------
Magnitude (a.u.)       :      4.554054718
Magnitude (Debye)      :     11.575487175



--------------------
Rotational spectrum 
--------------------
 
Rotational constants in cm-1:             0.005106             0.003912             0.003516 
Rotational constants in MHz :           153.087701           117.288118           105.416929 

Dipole components along the rotational axes: 
x,y,z [a.u.] :     4.536214    -0.033928     0.401282 
x,y,z [Debye]:    11.530139    -0.086239     1.019978 

 

Dipole moment calculation done in   0.0 sec 

Maximum memory used throughout the entire PROP-calculation: 49.2 MB

--------------------------------
SUGGESTED CITATIONS FOR THIS RUN
--------------------------------

Below you find a list of papers that are relevant to this ORCA run
We neither can nor want to force you to cite these papers, but we appreciate if you do
You receive ORCA, which is the product of decades of hard work by many enthusiastic individuals, for free
The only thing we kindly ask in return is that you cite our papers,
We deeply appreciate it, if you show your appreciation for ORCA by not just citing the generic ORCA reference.

Please note that relegating all ORCA citations to the supporting information does *not* help us.
SI sections are not indexed - citations you put there will not count into any citation statistics
But we need these citations in order to attract the funding resources that allow us to do what we are doing

Therefore, if you are a happy ORCA user, please consider citing a few of the papers listed below in the main body of your paper

In addition to the list printed below, the program has created the file TPP_S1.bibtex that contains the list in bibtex format
You can import this file easily into all common literature databanks and citation aid programs


List of essential papers. We consider these as the minimum necessary citations

  1. Neese, F.
     Software update: the ORCA program system, version 6.0
     WIRES Comput. Molec. Sci. 2025 15(1), e70019
     doi.org/10.1002/wcms.7019

List of papers to cite with high priority. The work reported in these papers was absolutely
necessary for this run to complete.
Our perspective: the developers of density functionals and basis sets usually get cited in chemistry papers
Good! But without the algorithms to do something with them, the functionals or basis sets would not do anything.
Hence, in our opinion, the algorithm design and method developments papers are equally worthy of getting cited

  1. Neese, F.
     An improvement of the resolution of the identity approximation for the formation of the Coulomb matrix
     J. Comp. Chem. 2003 24(14), 1740-1747
     doi.org/10.1002/jcc.10318
  2. Neese, F.; Wennmohs, F.; Hansen, A.; Becker, U.
     Efficient, approximate and parallel Hartree-Fock and hybrid DFT calculations. A 'chain-of-spheres' algorithm for the Hartree-Fock exchange
     Chem. Phys. 2009 356(1-3), 98-109
     doi.org/10.1016/j.chemphys.2008.10.036
  3. Grimme, S.; Antony, J.; Ehrlich, S.; Krieg, H.
     A consistent and accurate ab initio parametrization of density functional dispersion correction (DFT-D) for the 94 elements H-Pu
     J. Chem. Phys. 2010 132 , 154104
     doi.org/10.1063/1.3382344
  4. Grimme, S.; Ehrlich, S.; Goerigk, L.
     Effect of the damping function in dispersion corrected density functional theory
     J. Comput. Chem. 2011 32(7), 1456-1465
     doi.org/10.1002/jcc.21759
  5. Garcia-Rates, M.; Neese, F.
     Effect of the Solute Cavity on the Solvation Energy and its Derivatives within the Framework of the Gaussian Charge Scheme
     J. Comput. Chem. 2020 41 , 922-939
     doi.org/10.1002/jcc.26139
  6. Helmich-Paris, B.; de Souza, B.; Neese, F.; Izsák, R.
     An improved chain of spheres for exchange algorithm
     J. Chem. Phys. 2021 155(10), 104109
     doi.org/10.1063/5.0058766
  7. Neese, F.
     The SHARK Integral Generation and Digestion System
     J. Comp. Chem. 2022 44(3), 381
     doi.org/10.1002/jcc.26942

List of suggested additional citations. These are papers that are important in the 'surrounding' of 
of this run, or papers that preceded the highly important papers. If you like your results we are grateful for a citation.

  1. Izsak, R.; Neese, F.
     An overlap fitted chain of spheres exchange method
     J. Chem. Phys. 2011 135 , 144105
     doi.org/10.1063/1.3646921
  2. Izsak, R.; Hansen, A.; Neese, F.
     The resolution of identity and chain of spheres approximations for the LPNO-CCSD singles Fock term
     Molec. Phys. 2012 110 , 2413-2417
     doi.org/10.1080/00268976.2012.687466
  3. Neese, F.
     The ORCA program system
     WIRES Comput. Molec. Sci. 2012 2(1), 73-78
     doi.org/10.1002/wcms.81
  4. Izsak, R.; Neese, F.; Klopper, W.
     Robust fitting techniques in the chain of spheres approximation to the Fock exchange: The role of the complementary space
     J. Chem. Phys. 2013 139 , 
     doi.org/10.1063/1.4819264
  5. Neese, F.
     Software update: the ORCA program system, version 4.0
     WIRES Comput. Molec. Sci. 2018 8(1), 1-6
     doi.org/10.1002/wcms.1327
  6. Neese, F.; Wennmohs, F.; Becker, U.; Riplinger, C.
     The ORCA quantum chemistry program package
     J. Chem. Phys. 2020 152(22), 224108
     doi.org/10.1063/5.0004608
  7. Neese, F.
     Software update: The ORCA program system—Version 5.0
     WIRES Comput. Molec. Sci. 2022 12(1), e1606
     doi.org/10.1002/wcms.1606

List of optional additional citations

  1. Neese, F.
     Approximate second-order SCF convergence for spin unrestricted wavefunctions
     Chem. Phys. Lett. 2000 325(1-3), 93-98
     doi.org/10.1016/s0009-2614(00)00662-x

Timings for individual modules:

Sum of individual times          ...     1174.380 sec (=  19.573 min)
Startup calculation              ...       31.719 sec (=   0.529 min)   2.7 %
SCF iterations                   ...      760.628 sec (=  12.677 min)  64.8 %
Property calculations            ...        0.893 sec (=   0.015 min)   0.1 %
SCF Gradient evaluation          ...      380.802 sec (=   6.347 min)  32.4 %
Geometry relaxation              ...        0.338 sec (=   0.006 min)   0.0 %
                             ****ORCA TERMINATED NORMALLY****
TOTAL RUN TIME: 0 days 0 hours 19 minutes 37 seconds 971 msec
