
                                 *****************
                                 * O   R   C   A *
                                 *****************

                                            #,                                       
                                            ###                                      
                                            ####                                     
                                            #####                                    
                                            ######                                   
                                           ########,                                 
                                     ,,################,,,,,                         
                               ,,#################################,,                 
                          ,,##########################################,,             
                       ,#########################################, ''#####,          
                    ,#############################################,,   '####,        
                  ,##################################################,,,,####,       
                ,###########''''           ''''###############################       
              ,#####''   ,,,,##########,,,,          '''####'''          '####       
            ,##' ,,,,###########################,,,                        '##       
           ' ,,###''''                  '''############,,,                           
         ,,##''                                '''############,,,,        ,,,,,,###''
      ,#''                                            '''#######################'''  
     '                                                          ''''####''''         
             ,#######,   #######,   ,#######,      ##                                
            ,#'     '#,  ##    ##  ,#'     '#,    #''#        ,####,    ,#,          
            ##       ##  ##   ,#'  ##            #'  '#       #'       ,# #          
            ##       ##  #######   ##           ,######,      #####,      #          
            '#,     ,#'  ##    ##  '#,     ,#' ,#      #,     #,   #      #          
             '#######'   ##     ##  '#######'  #'      '#     '####' #    #          



                #########################################################
                #                        -***-                          #
                #          Department of theory and spectroscopy        #
                #                                                       #
                #                      Frank Neese                      #
                #                                                       #
                #     Directorship, Architecture, Infrastructure        #
                #                    SHARK, DRIVERS                     #
                #        Core code/Algorithms in most modules           #
                #                                                       #
                #        Max Planck Institute fuer Kohlenforschung      #
                #                Kaiser Wilhelm Platz 1                 #
                #                 D-45470 Muelheim/Ruhr                 #
                #                      Germany                          #
                #                                                       #
                #                  All rights reserved                  #
                #                        -***-                          #
                #########################################################


                         Program Version 6.1.0  -  RELEASE   -
                                (GIT: $679e74b$)
                          ($2025-06-10 18:02:51 +0200$)


 With contributions from (in alphabetic order):
[Max-Planck-Institut fuer Kohlenforschung]                               
  Daniel Aravena         : Magnetic Suceptibility                        
  Michael Atanasov       : Ab Initio Ligand Field Theory (pilot matlab implementation)
  Alexander A. Auer      : GIAO ZORA, VPT2 properties, NMR spectrum      
  Ute Becker             : All parallelization in ORCA, NUMFREQ, NUMCALC 
  Giovanni Bistoni       : ED, misc. LED, open-shell LED, HFLD           
  Dmytro Bykov           : pre 5.0 version of the SCF Hessian            
  Marcos Casanova-Páez   : Triplet and SCS-CIS(D). UHF-(DLPNO)-IP/EA/STEOM-CCSD. UHF-CVS-IP/STEOM-CCSD   
  Vijay G. Chilkuri      : MRCI spin determinant printing, contributions to CSF-ICE 
  Pauline Colinet        : FMM embedding                                 
  Dipayan Datta          : RHF DLPNO-CCSD density                        
  Achintya Kumar Dutta   : EOM-CC, STEOM-CC                              
  Nicolas Foglia         : Exact transition moments, OPA infrastructure, MCD improvements    
  Dmitry Ganyushin       : Spin-Orbit,Spin-Spin,Magnetic field MRCI      
  Miquel Garcia-Rates    : C-PCM and meta-GGA Hessian, CCSD/C-PCM, Gaussian charge scheme 
  Tiago L. C. Gouveia    : GS-ROHF, GS-ROCIS                             
  Yang Guo               : DLPNO-NEVPT2, F12-NEVPT2, CIM, IAO-localization        
  Andreas Hansen         : Spin unrestricted coupled pair/coupled cluster methods 
  Ingolf Harden          : AUTO-CI MPn and infrastructure                
  Benjamin Helmich-Paris : MC-RPA, TRAH-(SCF,CASSCF), AVAS, COSX integrals, SCF dyn. polar., MC-PDFT, srDFT 
  Lee Huntington         : MR-EOM, pCC                                   
  Robert Izsak           : Overlap fitted RIJCOSX, COSX-SCS-MP3, EOM     
  Riya Kayal             : Wick's Theorem for AUTO-CI, AUTO-CI UHF-CCSDT 
  Emily Kempfer          : AUTO-CI RHF CISDT and CCSDT, approximate NEVPT4
  Christian Kollmar      : KDIIS, OOCD, Brueckner-CCSD(T), CCSD density, CASPT2, CASPT2-K, improved NEVPT2 
  Axel Koslowski         : Symmetry handling                             
  Simone Kossmann        : meta-GGA functionals, TD-DFT gradient, OOMP2, (MP2 Hessian; deprecated post 5.0) 
  Lucas Lang             : DCDCAS, Hyperfine gauge corrections, ICE-SOC+SSC
  Marvin Lechner         : AUTO-CI (C++ implementation), FIC-MRCC        
  Spencer Leger          : CASSCF response                               
  Dagmar Lenk            : GEPOL surface, SMD, ORCA-2-JSON               
  Dimitrios Liakos       : Extrapolation schemes; Compound Job, Property file
  Dimitrios Manganas     : Further ROCIS development; embedding schemes. LFT, Crystal Embedding 
  Dimitrios Pantazis     : SARC Basis sets                               
  Anastasios Papadopoulos: AUTO-CI, single reference methods and gradients 
  Taras Petrenko         : pre 6.0 DFT Hessian and TD-DFT gradient,  ECA, NRVS 
  Petra Pikulova         : Analytic Raman intensities                    
  Peter Pinski           : DLPNO-MP2, DLPNO-MP2 Gradient                 
  Shashank Vittal Rao    : ES-AILFT, MagRelax                            
  Christoph Reimann      : Effective Core Potentials                     
  Marius Retegan         : Local ZFS, SOC                                
  Christoph Riplinger    : Optimizer, TS searches, QM/MM, DLPNO-CCSD(T), (RO)-DLPNO pert. Triples 
  Michael Roemelt        : Original ROCIS implementation, recursive CI coupling coefficients
  Masaaki Saitow         : Open-shell DLPNO-CCSD energy and density      
  Barbara Sandhoefer     : DKH picture change effects                    
  Yorick L. A. Schmerwitz: GMF and freeze-and-release deltaSCF, NEB S-IDPP initial path                    
  Kantharuban Sivalingam : CASSCF convergence/infrastructure, NEVPT2, NEVPT3, NEVPT4(SD), FIC-MRCI and CEPA variants
  Bernardo de Souza      : ESD, SOC TD-DFT                               
  Georgi L. Stoychev     : AutoAux, RI-MP2 NMR, DLPNO-MP2 response, X2C  
  Van Anh Tran           : RI-MP2 g-tensors                              
  Willem Van den Heuvel  : Paramagnetic NMR                              
  Zikuan Wang            : NOTCH, Electric field optimization            
  Frank Wennmohs         : Technical directorship and infrastructure     
  Hang Xu                : AUTO-CI-Response properties                   
                                                                         
[FACCTs GmbH]                                                            
  Markus Bursch, Nicolas Foglia, Miquel Garcia-Rates, Ingolf Harden, Hagen Neugebauer, Anastasios Papadopoulos, 
  Christoph Riplinger, Bernardo de Souza, Georgi L. Stoychev                                                    
                                                                 
  APM, various basis sets, CI-OPT, improved COSX, DLPNO-Multilevel,           
  DOCKER, DRACO, updates on ESD, Fragmentator, GOAT, IRC, LR-CPCM, L-BFGS, MBIS, meta-GGA TD-DFT gradient, ML-optimized integration grids, 
  MM, NACMEs, nearIR, NEB, NEB-TS, NL-DFT gradient (VV10), 2- and 3-layer-ONIOM, interface openCOSMO-RS, QMMM,   
  Crystal-QMMM, RESP, rigid body optimization, SF, symmetry and pop. for TD-DFT, various functionals, SOLVATOR                                   
                                                                         
[Other institutions]                                                     
  V. Asgeirsson          : NEB                                           
  Christoph Bannwarth    : sTDA-DFT, sTD-DFT, PBEh-3c, B97-3c, D3        
  Giovanni Bistoni       : ETS/NOCV, ADLD/ADEX, COVALED                  
  Martin Brehm           : Molecular dynamics                            
  Ronald Cardenas        : ETS/NOCV                                      
  Martina Colucci        : COVALED                                       
  Sebastian Ehlert       : rSCAN, r2SCAN, r2SCAN-3c, D4, dhf basis sets  
  Marvin Friede          : D4 for Fr, Ra, Ac-Lr                          
  Lars Goerigk           : TD-DFT with DH, B97 family of functionals     
  Stefan Grimme          : VdW corrections, initial TS optimization, DFT functionals, gCP, sTDA/sTD-DF 
  Waldemar Hujo          : DFT-NL                                        
  H. Jonsson             : NEB                                           
  Holger Kruse           : gCP                                           
  Marcel Mueller         : wB97X-3c, vDZP basis set                      
  Hagen Neugebauer       : wr2SCAN, Native XTB                           
  Gianluca Regni         : ADLD/ADEX                                     
  Tobias Risthaus        : pre 6.0 range-separated hybrid DFT and stability analysis
  Lukas Wittmann         : regularized MP2, r2SCAN double-hybrids, wr2SCAN        
                                                                         
We gratefully acknowledge several colleagues who have allowed us to      
interface, adapt or use parts of their codes:                            
  Ed Valeev, F. Pavosevic, A. Kumar             : LibInt (2-el integral package), F12 methods 
  Garnet Chan, S. Sharma, J. Yang, R. Olivares  : DMRG                   
  Ulf Ekstrom                                   : XCFun DFT Library      
  Mihaly Kallay                                 : mrcc  (arbitrary order and MRCC methods)
  Frank Weinhold                                : gennbo (NPA and NBO analysis)           
  Simon Mueller                                 : openCOSMO-RS                            
  Christopher J. Cramer and Donald G. Truhlar   : smd solvation model                     
  S Lehtola, MJT Oliveira, MAL Marques          : LibXC Library                           
  Liviu Ungur et al                             : ANISO software                          


 Your calculation uses the libint2 library for the computation of 2-el integrals
 For citations please refer to: http://libint.valeyev.net

 Your ORCA version has been built with support for libXC version: 7.0.0
 For citations please refer to: https://libxc.gitlab.io

 This ORCA versions uses:
   CBLAS   interface :  Fast vector & matrix operations
   LAPACKE interface :  Fast linear algebra routines
   SCALAPACK package :  Parallel linear algebra routines
   Shared memory     :  Shared parallel matrices
   BLAS/LAPACK       :  OpenBLAS 0.3.29  USE64BITINT DYNAMIC_ARCH NO_AFFINITY Haswell SINGLE_THREADED
        Core in use  :  Haswell
   Copyright (c) 2011-2014, The OpenBLAS Project


  ***********************************
  * Starting time: Tue Oct 28 16:54:46 2025
  * Host name:     corine-kengne-Latitude-5491
  * Process ID:    37494
  * Working dir.:  /home/corine-kengne/Documents/Travaux M2/Orca_optimisation/TPP-BODIPY
  ***********************************

NOTE: MaxCore=10000 MB was set to SCF,MP2,MDCI,CIPSI,MRCI,RASCI and CIS
      => If you want to overwrite this, your respective input block should be placed after the MaxCore statement
Your calculation utilizes the semiempirical GFN2-xTB method
Please cite in your paper:
Bannwarth, C.; Ehlert S.; Grimme, S. J. Chem. Theory Comput. 2019, 15, 1652.
   

================================================================================

================================================================================
                                        WARNINGS
                       Please study these warnings very carefully!
================================================================================


WARNING: Geometry Optimization
  ===> : Switching off AutoStart
         For restart on a previous wavefunction, please use MOREAD

WARNING: Found dipole moment calculation with XTB calculation
  ===> : Switching off dipole moment calculation


================================================================================
                                       INPUT FILE
================================================================================
NAME = TPP_BODIPY_Opt.inp
|  1> ! xtb2 Opt
|  2> 
|  3> %maxcore 10000          # Alloue 10000 Mo de RAM pour le calcul
|  4> 
|  5> * xyz 0 1               # Début des coordonnées : charge 0, multiplicité 1 (singulet)
|  6> P     -2.371278    8.387714    2.801291
|  7> C     -3.476622   12.950418    3.984137
|  8> C     -3.207668   12.548951    2.537170
|  9> C     -2.327304   11.306785    2.452149
| 10> C     -2.813123   10.144572    3.342494
| 11> C     -4.174190   11.808054    4.721633
| 12> C     -3.330483   10.534361    4.737879
| 13> C     -5.168593    9.241006    1.918905
| 14> C     -6.607737    9.225142    2.449351
| 15> C     -7.219164    7.827485    2.348563
| 16> C     -6.303854    6.770556    2.964084
| 17> C     -4.887099    6.884999    2.396813
| 18> C     -4.282290    8.252587    2.730767
| 19> C      1.422031   10.110570    3.795866
| 20> C      0.360115    9.431197    2.936725
| 21> C     -0.891627    9.078113    3.752146
| 22> C      1.845234    9.204209    4.955039
| 23> C      0.693094    8.588905    5.765026
| 24> C     -0.715819    8.920678    5.275260
| 25> H     -3.901119    2.627657    3.165558
| 26> H     -4.121935   13.853445    3.996460
| 27> H     -2.726762   13.380449    1.980628
| 28> H     -4.401787   12.112774    5.764000
| 29> H     -3.909455    9.708785    5.200322
| 30> H     -2.257221   10.995030    1.388578
| 31> H      0.119562   10.045121    2.046170
| 32> H      2.305567   10.410153    3.194829
| 33> H      2.505654    8.397705    4.569967
| 34> H      0.823787    7.489290    5.852215
| 35> H     -1.527245    8.393022    5.815048
| 36> H     -4.803719    6.603699    1.325767
| 37> H     -6.711695    5.749132    2.821923
| 38> H     -8.214493    7.807743    2.840418
| 39> H     -7.247348    9.940915    1.891402
| 40> H     -4.878601   10.304823    1.886919
| 41> C     -1.845701    6.676537    3.480414
| 42> C     -2.798343    5.504050    3.705291
| 43> C     -3.467978    5.337922    5.049272
| 44> C     -4.328122    4.149371    4.692410
| 45> C     -3.375488    3.286809    3.884305
| 46> C     -0.382006    6.203629    3.535389
| 47> C      0.572700    6.383189    2.367255
| 48> C      1.800264    5.622166    2.837849
| 49> C      1.315251    4.800724    4.023315
| 50> N     -2.416743    4.171137    3.226462
| 51> N     -0.132508    4.897829    4.139914
| 52> B     -0.940801    3.739741    3.482072
| 53> F     -0.816346    2.565076    4.339791
| 54> F     -0.386158    3.367656    2.185287
| 55> H      2.577526    6.315708    3.218901
| 56> H      1.814301    3.853984    4.306827
| 57> H      0.162380    5.882896    1.466546
| 58> H     -4.077202    6.216187    5.339679
| 59> H     -4.795392    3.625399    5.551105
| 60> *
| 61> 
| 62>                          ****END OF INPUT****
================================================================================

                       *****************************
                       * Geometry Optimization Run *
                       *****************************

Geometry optimization settings:
Update method            Update   .... BFGS
Choice of coordinates    CoordSys .... (2022) Redundant Internals
Initial Hessian          InHess   .... Almloef's Model
Max. no of cycles        MaxIter  .... 162

Convergence Tolerances:
Energy Change            TolE     ....  5.0000e-06 Eh
Max. Gradient            TolMAXG  ....  3.0000e-04 Eh/bohr
RMS Gradient             TolRMSG  ....  1.0000e-04 Eh/bohr
Max. Displacement        TolMAXD  ....  4.0000e-03 bohr
RMS Displacement         TolRMSD  ....  2.0000e-03 bohr
Strict Convergence                .... False

------------------------------------------------------------------------------
                        ORCA OPTIMIZATION COORDINATE SETUP
------------------------------------------------------------------------------

The optimization will be done in redundant internal coordinates (2022)
Making redundant internal coordinates   ...  (2022 redundants) done
Evaluating the initial hessian          ...  (Almloef) done
Evaluating the coordinates              ...  done
Calculating the B-matrix                .... done
Calculating the G-matrix                .... done
The number of degrees of freedom        ....  308

    -----------------------------------------------------------------
                    Redundant Internal Coordinates


    -----------------------------------------------------------------
         Definition                    Initial Value    Approx d2E/dq
    -----------------------------------------------------------------
      1. B(C   2,C   1)                  1.5255         0.379767   
      2. B(C   3,C   2)                  1.5249         0.380674   
      3. B(C   4,P   0)                  1.8907         0.333754   
      4. B(C   4,C   3)                  1.5426         0.356737   
      5. B(C   5,C   1)                  1.5282         0.376007   
      6. B(C   6,C   4)                  1.5384         0.362214   
      7. B(C   6,C   5)                  1.5279         0.376504   
      8. B(C   8,C   7)                  1.5339         0.368300   
      9. B(C   9,C   8)                  1.5289         0.375127   
     10. B(C  10,C   9)                  1.5277         0.376794   
     11. B(C  11,C  10)                  1.5304         0.373042   
     12. B(C  12,C  11)                  1.5322         0.370577   
     13. B(C  12,C   7)                  1.5562         0.339348   
     14. B(C  12,P   0)                  1.9171         0.302906   
     15. B(C  14,C  13)                  1.5256         0.379717   
     16. B(C  15,C  14)                  1.5351         0.366682   
     17. B(C  15,P   0)                  1.8895         0.335228   
     18. B(C  16,C  13)                  1.5311         0.372066   
     19. B(C  17,C  16)                  1.5369         0.364206   
     20. B(C  18,C  17)                  1.5281         0.376241   
     21. B(C  18,C  15)                  1.5413         0.358399   
     22. B(H  20,C   1)                  1.1100         0.334625   
     23. B(H  21,C   2)                  1.1101         0.334426   
     24. B(H  22,C   5)                  1.1096         0.335099   
     25. B(H  23,C   6)                  1.1093         0.335402   
     26. B(H  24,C   3)                  1.1105         0.333935   
     27. B(H  25,C  14)                  1.1081         0.336951   
     28. B(H  26,C  13)                  1.1098         0.334851   
     29. B(H  27,C  16)                  1.1113         0.333054   
     30. B(H  28,C  17)                  1.1108         0.333632   
     31. B(H  29,C  18)                  1.1082         0.336757   
     32. B(H  30,C  11)                  1.1105         0.333971   
     33. B(H  31,C  10)                  1.1090         0.335839   
     34. B(H  32,C   9)                  1.1104         0.334098   
     35. B(H  33,C   8)                  1.1103         0.334237   
     36. B(H  34,C   7)                  1.1031         0.343183   
     37. B(C  35,P   0)                  1.9146         0.305717   
     38. B(C  36,C  35)                  1.5274         0.377218   
     39. B(C  37,C  36)                  1.5107         0.400984   
     40. B(C  38,C  37)                  1.5099         0.402177   
     41. B(C  39,C  38)                  1.5181         0.390301   
     42. B(C  39,H  19)                  1.1079         0.337225   
     43. B(C  40,C  35)                  1.5392         0.361190   
     44. B(C  41,C  40)                  1.5193         0.388566   
     45. B(C  42,C  41)                  1.5191         0.388901   
     46. B(C  43,C  42)                  1.5216         0.385251   
     47. B(N  44,C  39)                  1.4608         0.431412   
     48. B(N  44,C  36)                  1.4668         0.422006   
     49. B(N  45,C  43)                  1.4557         0.439615   
     50. B(N  45,C  40)                  1.4604         0.432048   
     51. B(B  46,N  45)                  1.5580         0.349713   
     52. B(B  46,N  44)                  1.5588         0.348650   
     53. B(F  47,B  46)                  1.4598         0.466044   
     54. B(F  48,B  46)                  1.4587         0.467973   
     55. B(H  49,C  42)                  1.1092         0.335569   
     56. B(H  50,C  43)                  1.1071         0.338132   
     57. B(H  51,C  41)                  1.1090         0.335794   
     58. B(H  52,C  37)                  1.1076         0.337520   
     59. B(H  53,C  38)                  1.1092         0.335620   
     60. A(C   4,P   0,C  12)           80.9713         0.389224   
     61. A(C  15,P   0,C  35)           86.1639         0.390152   
     62. A(C   4,P   0,C  35)          142.4783         0.389852   
     63. A(C   4,P   0,C  15)           72.5081         0.396193   
     64. A(C  12,P   0,C  15)          145.5770         0.389523   
     65. A(C  12,P   0,C  35)          102.9263         0.383320   
     66. A(C   5,C   1,H  20)          109.7192         0.320783   
     67. A(C   2,C   1,C   5)          109.9674         0.364779   
     68. A(C   2,C   1,H  20)          109.0947         0.321306   
     69. A(C   3,C   2,H  21)          109.3957         0.321400   
     70. A(C   1,C   2,C   3)          111.6568         0.365550   
     71. A(C   1,C   2,H  21)          110.7795         0.321275   
     72. A(C   2,C   3,C   4)          113.5618         0.361662   
     73. A(C   4,C   3,H  24)          111.1707         0.317933   
     74. A(C   2,C   3,H  24)          108.5729         0.321323   
     75. A(P   0,C   4,C   3)          117.4701         0.376150   
     76. A(P   0,C   4,C   6)          125.0062         0.377142   
     77. A(C   3,C   4,C   6)          116.0111         0.358611   
     78. A(C   1,C   5,C   6)          112.0999         0.364241   
     79. A(C   6,C   5,H  22)          109.4034         0.320927   
     80. A(C   1,C   5,H  22)          109.9798         0.320858   
     81. A(C   4,C   6,H  23)          111.4114         0.318952   
     82. A(C   5,C   6,H  23)          109.6715         0.320974   
     83. A(C   4,C   6,C   5)          112.7855         0.361922   
     84. A(C  12,C   7,H  34)          118.5515         0.316762   
     85. A(C   8,C   7,H  34)          105.4653         0.321022   
     86. A(C   8,C   7,C  12)          110.3274         0.356586   
     87. A(C   7,C   8,H  33)          111.1031         0.319639   
     88. A(C   9,C   8,H  33)          109.0160         0.320600   
     89. A(C   7,C   8,C   9)          111.2157         0.362727   
     90. A(C  10,C   9,H  32)          110.2607         0.320811   
     91. A(C   8,C   9,H  32)          110.2141         0.320578   
     92. A(C   8,C   9,C  10)          111.4879         0.364143   
     93. A(C   9,C  10,H  31)          111.4221         0.321083   
     94. A(C  11,C  10,H  31)          111.2116         0.320558   
     95. A(C   9,C  10,C  11)          110.7065         0.363796   
     96. A(C  10,C  11,C  12)          110.5718         0.362763   
     97. A(C  10,C  11,H  30)          114.0834         0.320266   
     98. A(C  12,C  11,H  30)          113.9959         0.319919   
     99. A(P   0,C  12,C   7)          122.8311         0.366756   
    100. A(C   7,C  12,C  11)          103.2029         0.356960   
    101. A(P   0,C  12,C  11)          117.6724         0.372346   
    102. A(C  14,C  13,H  26)          111.6779         0.321334   
    103. A(C  14,C  13,C  16)          110.8023         0.364114   
    104. A(C  16,C  13,H  26)          110.4730         0.320267   
    105. A(C  13,C  14,C  15)          111.7703         0.363208   
    106. A(C  15,C  14,H  25)          112.1684         0.319831   
    107. A(C  13,C  14,H  25)          110.9155         0.321664   
    108. A(C  14,C  15,C  18)          117.0915         0.359645   
    109. A(P   0,C  15,C  18)          123.3192         0.376739   
    110. A(P   0,C  15,C  14)          117.0836         0.378231   
    111. A(C  17,C  16,H  27)          109.7296         0.318872   
    112. A(C  13,C  16,H  27)          109.3628         0.319985   
    113. A(C  13,C  16,C  17)          115.3907         0.361529   
    114. A(C  16,C  17,C  18)          115.8075         0.362218   
    115. A(C  18,C  17,H  28)          110.4005         0.320660   
    116. A(C  16,C  17,H  28)          110.4562         0.318962   
    117. A(C  15,C  18,C  17)          116.3647         0.361226   
    118. A(C  15,C  18,H  29)          116.5155         0.318611   
    119. A(C  17,C  18,H  29)          114.5568         0.321150   
    120. A(P   0,C  35,C  36)          124.5491         0.374083   
    121. A(C  36,C  35,C  40)          110.6104         0.361865   
    122. A(P   0,C  35,C  40)          123.2525         0.371295   
    123. A(C  35,C  36,C  37)          119.4631         0.368397   
    124. A(C  37,C  36,N  44)          107.8062         0.373224   
    125. A(C  35,C  36,N  44)          119.1601         0.369321   
    126. A(C  36,C  37,C  38)           97.4007         0.372478   
    127. A(C  38,C  37,H  52)          111.8883         0.324800   
    128. A(C  36,C  37,H  52)          112.9455         0.324641   
    129. A(C  39,C  38,H  53)          114.0832         0.322906   
    130. A(C  37,C  38,H  53)          115.3960         0.324499   
    131. A(C  37,C  38,C  39)          102.4504         0.370750   
    132. A(C  38,C  39,N  44)          107.9149         0.372905   
    133. A(H  19,C  39,N  44)          112.2970         0.326556   
    134. A(H  19,C  39,C  38)          112.6860         0.323159   
    135. A(C  41,C  40,N  45)          108.4566         0.372714   
    136. A(C  35,C  40,N  45)          116.8699         0.368061   
    137. A(C  35,C  40,C  41)          122.2625         0.363701   
    138. A(C  40,C  41,H  51)          109.7939         0.322698   
    139. A(C  42,C  41,H  51)          108.9408         0.322744   
    140. A(C  40,C  41,C  42)          102.1462         0.368336   
    141. A(C  43,C  42,H  49)          107.0533         0.322210   
    142. A(C  41,C  42,H  49)          111.0666         0.322708   
    143. A(C  41,C  42,C  43)          104.7277         0.367795   
    144. A(N  45,C  43,H  50)          119.0016         0.327716   
    145. A(C  42,C  43,H  50)          121.1623         0.322612   
    146. A(C  42,C  43,N  45)          110.0843         0.373279   
    147. A(C  39,N  44,B  46)          112.3364         0.366499   
    148. A(C  36,N  44,B  46)          116.3775         0.365118   
    149. A(C  36,N  44,C  39)          103.4358         0.375591   
    150. A(C  43,N  45,B  46)          115.6314         0.367877   
    151. A(C  40,N  45,B  46)          113.6543         0.366783   
    152. A(C  40,N  45,C  43)          101.3264         0.378351   
    153. A(F  47,B  46,F  48)          106.5393         0.390867   
    154. A(N  45,B  46,F  48)          111.5752         0.373418   
    155. A(N  44,B  46,F  48)          106.5494         0.373222   
    156. A(N  45,B  46,F  47)          107.8074         0.373152   
    157. A(N  44,B  46,F  47)          113.5635         0.372957   
    158. A(N  44,B  46,N  45)          110.7787         0.356543   
    159. D(H  21,C   2,C   1,H  20)     58.0144         0.010000   
    160. D(H  21,C   2,C   1,C   5)    178.3901         0.010000   
    161. D(C   3,C   2,C   1,C   5)    -59.4121         0.010000   
    162. D(C   3,C   2,C   1,H  20)   -179.7877         0.010000   
    163. D(C   4,C   3,C   2,H  21)    172.5818         0.010028   
    164. D(H  24,C   3,C   2,C   1)    173.7988         0.010028   
    165. D(H  24,C   3,C   2,H  21)    -63.2118         0.010028   
    166. D(C   4,C   3,C   2,C   1)     49.5925         0.010028   
    167. D(C   6,C   4,P   0,C  15)    -81.6646         0.010000   
    168. D(P   0,C   4,C   3,C   2)    152.8132         0.010000   
    169. D(C   6,C   4,P   0,C  12)     76.1256         0.010000   
    170. D(C   3,C   4,P   0,C  12)   -118.5071         0.010000   
    171. D(C   3,C   4,P   0,C  15)     83.7028         0.010000   
    172. D(C   3,C   4,P   0,C  35)    141.9973         0.010000   
    173. D(C   6,C   4,C   3,C   2)    -40.4980         0.010000   
    174. D(P   0,C   4,C   3,H  24)     30.0257         0.010000   
    175. D(C   6,C   4,C   3,H  24)   -163.2855         0.010000   
    176. D(H  22,C   5,C   1,H  20)    -58.0326         0.010000   
    177. D(H  22,C   5,C   1,C   2)   -178.0300         0.010000   
    178. D(C   6,C   5,C   1,C   2)     60.0217         0.010000   
    179. D(C   6,C   5,C   1,H  20)   -179.9808         0.010000   
    180. D(H  23,C   6,C   5,H  22)     62.7896         0.010000   
    181. D(C   4,C   6,C   5,H  22)   -172.4132         0.010000   
    182. D(C   4,C   6,C   5,C   1)    -50.1363         0.010000   
    183. D(H  23,C   6,C   5,C   1)   -174.9335         0.010000   
    184. D(H  23,C   6,C   4,P   0)    -30.1105         0.010000   
    185. D(H  23,C   6,C   4,C   3)    164.3315         0.010000   
    186. D(C   5,C   6,C   4,C   3)     40.4894         0.010000   
    187. D(C   5,C   6,C   4,P   0)   -153.9526         0.010000   
    188. D(C   9,C   8,C   7,C  12)    -59.4600         0.010000   
    189. D(C   9,C   8,C   7,H  34)    171.3913         0.010000   
    190. D(H  33,C   8,C   7,H  34)     49.7594         0.010000   
    191. D(H  33,C   8,C   7,C  12)    178.9081         0.010000   
    192. D(H  32,C   9,C   8,C   7)    173.5901         0.010000   
    193. D(H  32,C   9,C   8,H  33)    -63.5693         0.010000   
    194. D(C  10,C   9,C   8,H  33)    173.6424         0.010000   
    195. D(C  10,C   9,C   8,C   7)     50.8018         0.010000   
    196. D(H  31,C  10,C   9,H  32)     61.5739         0.010000   
    197. D(H  31,C  10,C   9,C   8)   -175.6645         0.010000   
    198. D(C  11,C  10,C   9,H  32)   -174.1065         0.010000   
    199. D(C  11,C  10,C   9,C   8)    -51.3449         0.010000   
    200. D(H  30,C  11,C  10,H  31)     55.9152         0.010000   
    201. D(H  30,C  11,C  10,C   9)    -68.5245         0.010000   
    202. D(C  12,C  11,C  10,H  31)   -174.0285         0.010000   
    203. D(C  12,C  11,C  10,C   9)     61.5318         0.010000   
    204. D(C   7,C  12,C  11,H  30)     63.8207         0.010000   
    205. D(C   7,C  12,C  11,C  10)    -66.2821         0.010000   
    206. D(P   0,C  12,C  11,H  30)    -74.9289         0.010000   
    207. D(C  11,C  12,C   7,H  34)   -173.1541         0.010000   
    208. D(C  11,C  12,C   7,C   8)     65.1569         0.010000   
    209. D(P   0,C  12,C   7,H  34)    -37.1761         0.010000   
    210. D(P   0,C  12,C   7,C   8)   -158.8650         0.010000   
    211. D(C  11,C  12,P   0,C  15)   -136.2837         0.010000   
    212. D(P   0,C  12,C  11,C  10)    154.9684         0.010000   
    213. D(C  11,C  12,P   0,C   4)   -175.9082         0.010000   
    214. D(C   7,C  12,P   0,C  35)   -164.1438         0.010000   
    215. D(C   7,C  12,P   0,C  15)     93.5298         0.010000   
    216. D(C   7,C  12,P   0,C   4)     53.9052         0.010000   
    217. D(H  25,C  14,C  13,H  26)    -51.2052         0.010000   
    218. D(H  25,C  14,C  13,C  16)   -174.8228         0.010000   
    219. D(C  15,C  14,C  13,H  26)   -177.1920         0.010000   
    220. D(C  15,C  14,C  13,C  16)     59.1905         0.010000   
    221. D(C  14,C  15,P   0,C   4)   -108.2359         0.010000   
    222. D(C  18,C  15,C  14,C  13)    -23.3027         0.010000   
    223. D(P   0,C  15,C  14,H  25)     48.7361         0.010000   
    224. D(P   0,C  15,C  14,C  13)    174.0331         0.010000   
    225. D(C  18,C  15,P   0,C  12)     48.9439         0.010000   
    226. D(C  18,C  15,P   0,C   4)     90.2735         0.010000   
    227. D(C  14,C  15,P   0,C  35)    103.0514         0.010000   
    228. D(C  18,C  15,C  14,H  25)   -148.5996         0.010000   
    229. D(C  14,C  15,P   0,C  12)   -149.5655         0.010000   
    230. D(H  27,C  16,C  13,C  14)     75.3930         0.010000   
    231. D(C  17,C  16,C  13,H  26)   -173.1691         0.010000   
    232. D(H  27,C  16,C  13,H  26)    -48.9140         0.010000   
    233. D(C  17,C  16,C  13,C  14)    -48.8621         0.010000   
    234. D(H  28,C  17,C  16,H  27)      4.5395         0.010000   
    235. D(H  28,C  17,C  16,C  13)    128.6027         0.010000   
    236. D(C  18,C  17,C  16,H  27)   -121.8763         0.010000   
    237. D(C  18,C  17,C  16,C  13)      2.1869         0.010000   
    238. D(H  29,C  18,C  17,C  16)    174.6380         0.010000   
    239. D(C  15,C  18,C  17,H  28)    -92.5463         0.010000   
    240. D(C  15,C  18,C  17,C  16)     33.8977         0.010000   
    241. D(H  29,C  18,C  15,C  14)   -163.0334         0.010000   
    242. D(H  29,C  18,C  15,P   0)     -1.5442         0.010000   
    243. D(C  17,C  18,C  15,C  14)    -23.0686         0.010000   
    244. D(H  29,C  18,C  17,H  28)     48.1941         0.010000   
    245. D(C  17,C  18,C  15,P   0)    138.4207         0.010000   
    246. D(C  40,C  35,P   0,C  12)    170.9600         0.010000   
    247. D(C  40,C  35,P   0,C   4)    -97.0620         0.010000   
    248. D(C  36,C  35,P   0,C  15)    153.0848         0.010000   
    249. D(C  36,C  35,P   0,C  12)      6.6927         0.010000   
    250. D(C  36,C  35,P   0,C   4)     98.6707         0.010000   
    251. D(N  44,C  36,C  35,C  40)    -32.8773         0.010000   
    252. D(N  44,C  36,C  35,P   0)    133.1028         0.010000   
    253. D(C  37,C  36,C  35,C  40)    102.9632         0.010000   
    254. D(C  37,C  36,C  35,P   0)    -91.0567         0.010000   
    255. D(H  52,C  37,C  36,N  44)   -161.2033         0.011053   
    256. D(H  52,C  37,C  36,C  35)     58.5121         0.011053   
    257. D(C  38,C  37,C  36,N  44)    -43.6082         0.011053   
    258. D(C  38,C  37,C  36,C  35)    176.1071         0.011053   
    259. D(H  53,C  38,C  37,H  52)    -74.7843         0.011115   
    260. D(H  53,C  38,C  37,C  36)    166.8006         0.011115   
    261. D(C  39,C  38,C  37,H  52)    160.6458         0.011115   
    262. D(C  39,C  38,C  37,C  36)     42.2307         0.011115   
    263. D(N  44,C  39,C  38,H  53)   -154.7328         0.010505   
    264. D(N  44,C  39,C  38,C  37)    -29.2990         0.010505   
    265. D(H  19,C  39,C  38,H  53)     80.7040         0.010505   
    266. D(H  19,C  39,C  38,C  37)   -153.8623         0.010505   
    267. D(N  45,C  40,C  35,C  36)    -16.6652         0.010000   
    268. D(N  45,C  40,C  35,P   0)    177.1389         0.010000   
    269. D(C  41,C  40,C  35,C  36)    121.0268         0.010000   
    270. D(C  41,C  40,C  35,P   0)    -45.1691         0.010000   
    271. D(H  51,C  41,C  40,N  45)     82.8452         0.010418   
    272. D(H  51,C  41,C  40,C  35)    -57.8828         0.010418   
    273. D(C  42,C  41,C  40,N  45)    -32.6435         0.010418   
    274. D(C  42,C  41,C  40,C  35)   -173.3715         0.010418   
    275. D(H  49,C  42,C  41,H  51)    142.8654         0.010435   
    276. D(H  49,C  42,C  41,C  40)   -101.0255         0.010435   
    277. D(C  43,C  42,C  41,H  51)   -101.9082         0.010435   
    278. D(C  43,C  42,C  41,C  40)     14.2008         0.010435   
    279. D(H  50,C  43,C  42,H  49)    -88.5354         0.010253   
    280. D(H  50,C  43,C  42,C  41)    153.4700         0.010253   
    281. D(N  45,C  43,C  42,H  49)    125.9384         0.010253   
    282. D(N  45,C  43,C  42,C  41)      7.9437         0.010253   
    283. D(B  46,N  44,C  36,C  35)     43.1840         0.014034   
    284. D(C  39,N  44,C  36,C  37)     26.4429         0.014034   
    285. D(C  39,N  44,C  36,C  35)    166.8685         0.014034   
    286. D(B  46,N  44,C  39,C  38)    128.4450         0.014659   
    287. D(B  46,N  44,C  39,H  19)   -106.7590         0.014659   
    288. D(C  36,N  44,C  39,C  38)      2.1464         0.014659   
    289. D(C  36,N  44,C  39,H  19)    126.9424         0.014659   
    290. D(B  46,N  44,C  36,C  37)    -97.2416         0.014034   
    291. D(B  46,N  45,C  43,H  50)    -50.3291         0.015219   
    292. D(B  46,N  45,C  43,C  42)     96.0431         0.015219   
    293. D(C  40,N  45,C  43,H  50)   -173.6926         0.015219   
    294. D(C  40,N  45,C  43,C  42)    -27.3205         0.015219   
    295. D(B  46,N  45,C  40,C  41)    -87.5065         0.014702   
    296. D(B  46,N  45,C  40,C  35)     55.6193         0.014702   
    297. D(C  43,N  45,C  40,C  41)     37.2000         0.014702   
    298. D(C  43,N  45,C  40,C  35)   -179.6742         0.014702   
    299. D(F  48,B  46,N  45,C  40)     74.8583         0.010000   
    300. D(F  47,B  46,N  45,C  43)     74.8946         0.010000   
    301. D(F  47,B  46,N  45,C  40)   -168.4917         0.010000   
    302. D(N  44,B  46,N  45,C  43)   -160.2876         0.010000   
    303. D(N  44,B  46,N  45,C  40)    -43.6739         0.010000   
    304. D(F  48,B  46,N  44,C  36)   -125.1473         0.010000   
    305. D(F  47,B  46,N  44,C  39)     -1.0786         0.010000   
    306. D(F  47,B  46,N  44,C  36)    117.8786         0.010000   
    307. D(N  45,B  46,N  44,C  39)   -122.5674         0.010000   
    308. D(N  45,B  46,N  44,C  36)     -3.6102         0.010000   
    -----------------------------------------------------------------

Number of atoms                         .... 54
Number of degrees of freedom            .... 308


         *************************************************************
         *                GEOMETRY OPTIMIZATION CYCLE   1            *
         *************************************************************
---------------------------------
CARTESIAN COORDINATES (ANGSTROEM)
---------------------------------
  P    -2.371278    8.387714    2.801291
  C    -3.476622   12.950418    3.984137
  C    -3.207668   12.548951    2.537170
  C    -2.327304   11.306785    2.452149
  C    -2.813123   10.144572    3.342494
  C    -4.174190   11.808054    4.721633
  C    -3.330483   10.534361    4.737879
  C    -5.168593    9.241006    1.918905
  C    -6.607737    9.225142    2.449351
  C    -7.219164    7.827485    2.348563
  C    -6.303854    6.770556    2.964084
  C    -4.887099    6.884999    2.396813
  C    -4.282290    8.252587    2.730767
  C     1.422031   10.110570    3.795866
  C     0.360115    9.431197    2.936725
  C    -0.891627    9.078113    3.752146
  C     1.845234    9.204209    4.955039
  C     0.693094    8.588905    5.765026
  C    -0.715819    8.920678    5.275260
  H    -3.901119    2.627657    3.165558
  H    -4.121935   13.853445    3.996460
  H    -2.726762   13.380449    1.980628
  H    -4.401787   12.112774    5.764000
  H    -3.909455    9.708785    5.200322
  H    -2.257221   10.995030    1.388578
  H     0.119562   10.045121    2.046170
  H     2.305567   10.410153    3.194829
  H     2.505654    8.397705    4.569967
  H     0.823787    7.489290    5.852215
  H    -1.527245    8.393022    5.815048
  H    -4.803719    6.603699    1.325767
  H    -6.711695    5.749132    2.821923
  H    -8.214493    7.807743    2.840418
  H    -7.247348    9.940915    1.891402
  H    -4.878601   10.304823    1.886919
  C    -1.845701    6.676537    3.480414
  C    -2.798343    5.504050    3.705291
  C    -3.467978    5.337922    5.049272
  C    -4.328122    4.149371    4.692410
  C    -3.375488    3.286809    3.884305
  C    -0.382006    6.203629    3.535389
  C     0.572700    6.383189    2.367255
  C     1.800264    5.622166    2.837849
  C     1.315251    4.800724    4.023315
  N    -2.416743    4.171137    3.226462
  N    -0.132508    4.897829    4.139914
  B    -0.940801    3.739741    3.482072
  F    -0.816346    2.565076    4.339791
  F    -0.386158    3.367656    2.185287
  H     2.577526    6.315708    3.218901
  H     1.814301    3.853984    4.306827
  H     0.162380    5.882896    1.466546
  H    -4.077202    6.216187    5.339679
  H    -4.795392    3.625399    5.551105

----------------------------
CARTESIAN COORDINATES (A.U.)
----------------------------
  NO LB    ZA    FRAG    MASS        X           Y           Z
   0 P  15.0000    0    30.974   -4.481066   15.850482    5.293673
   1 C   6.0000    0    12.011   -6.569863   24.472743    7.528928
   2 C   6.0000    0    12.011   -6.061614   23.714081    4.794556
   3 C   6.0000    0    12.011   -4.397967   21.366727    4.633890
   4 C   6.0000    0    12.011   -5.316032   19.170463    6.316398
   5 C   6.0000    0    12.011   -7.888076   22.313988    8.922593
   6 C   6.0000    0    12.011   -6.293701   19.907057    8.953294
   7 C   6.0000    0    12.011   -9.767225   17.462971    3.626205
   8 C   6.0000    0    12.011  -12.486813   17.432992    4.628603
   9 C   6.0000    0    12.011  -13.642243   14.791803    4.438141
  10 C   6.0000    0    12.011  -11.912558   12.794497    5.601307
  11 C   6.0000    0    12.011   -9.235279   13.010763    4.529320
  12 C   6.0000    0    12.011   -8.092355   15.595129    5.160402
  13 C   6.0000    0    12.011    2.687249   19.106208    7.173147
  14 C   6.0000    0    12.011    0.680519   17.822379    5.549606
  15 C   6.0000    0    12.011   -1.684931   17.155147    7.090528
  16 C   6.0000    0    12.011    3.486987   17.393434    9.363667
  17 C   6.0000    0    12.011    1.309758   16.230678   10.894320
  18 C   6.0000    0    12.011   -1.352702   16.857638    9.968797
  19 H   1.0000    0     1.008   -7.372047    4.965552    5.982038
  20 H   1.0000    0     1.008   -7.789328   26.179217    7.552215
  21 H   1.0000    0     1.008   -5.152833   25.285384    3.742844
  22 H   1.0000    0     1.008   -8.318172   22.889826   10.892381
  23 H   1.0000    0     1.008   -7.387799   18.346945    9.827184
  24 H   1.0000    0     1.008   -4.265530   20.777596    2.624032
  25 H   1.0000    0     1.008    0.225939   18.982528    3.866701
  26 H   1.0000    0     1.008    4.356890   19.672338    6.037352
  27 H   1.0000    0     1.008    4.735000   15.869363    8.635986
  28 H   1.0000    0     1.008    1.556732   14.152707   11.059084
  29 H   1.0000    0     1.008   -2.886075   15.860513   10.988848
  30 H   1.0000    0     1.008   -9.077713   12.479183    2.505337
  31 H   1.0000    0     1.008  -12.683265   10.864285    5.332662
  32 H   1.0000    0     1.008  -15.523142   14.754496    5.367612
  33 H   1.0000    0     1.008  -13.695503   18.785607    3.574232
  34 H   1.0000    0     1.008   -9.219220   19.473293    3.565760
  35 C   6.0000    0    12.011   -3.487869   12.616826    6.577029
  36 C   6.0000    0    12.011   -5.288102   10.401147    7.001985
  37 C   6.0000    0    12.011   -6.553529   10.087211    9.541741
  38 C   6.0000    0    12.011   -8.178965    7.841175    8.867370
  39 C   6.0000    0    12.011   -6.378748    6.211169    7.340273
  40 C   6.0000    0    12.011   -0.721887   11.723160    6.680917
  41 C   6.0000    0    12.011    1.082246   12.062479    4.473464
  42 C   6.0000    0    12.011    3.402006   10.624354    5.362757
  43 C   6.0000    0    12.011    2.485464    9.072054    7.602964
  44 N   7.0000    0    14.007   -4.566982    7.882307    6.097130
  45 N   7.0000    0    14.007   -0.250404    9.255555    7.823304
  46 B   5.0000    0    10.810   -1.777856    7.067086    6.580162
  47 F   9.0000    0    18.998   -1.542670    4.847291    8.201016
  48 F   9.0000    0    18.998   -0.729733    6.363948    4.129594
  49 H   1.0000    0     1.008    4.870818   11.934958    6.082841
  50 H   1.0000    0     1.008    3.428532    7.282974    8.138724
  51 H   1.0000    0     1.008    0.306854   11.117062    2.771370
  52 H   1.0000    0     1.008   -7.704795   11.746891   10.090531
  53 H   1.0000    0     1.008   -9.061978    6.851011   10.490068

      -----------------------------------------------------------      
     |                   =====================                   |     
     |                           x T B                           |     
     |                   =====================                   |     
     |                         S. Grimme                         |     
     |          Mulliken Center for Theoretical Chemistry        |     
     |                    University of Bonn                     |     
      -----------------------------------------------------------      

   * xtb version 6.7.1 (edcfbbe) compiled by 'albert@albert-system' on 2024-07-22

   xtb is free software: you can redistribute it and/or modify it under
   the terms of the GNU Lesser General Public License as published by
   the Free Software Foundation, either version 3 of the License, or
   (at your option) any later version.
   
   xtb is distributed in the hope that it will be useful,
   but WITHOUT ANY WARRANTY; without even the implied warranty of
   MERCHANTABILITY or FITNESS FOR A PARTICULAR PURPOSE.  See the
   GNU Lesser General Public License for more details.
   
   Cite this work as:
   * C. Bannwarth, E. Caldeweyher, S. Ehlert, A. Hansen, P. Pracht,
     J. Seibert, S. Spicher, S. Grimme, WIREs Comput. Mol. Sci., 2020, 11,
     e01493. DOI: 10.1002/wcms.1493
   
   for GFN2-xTB:
   * C. Bannwarth, S. Ehlert and S. Grimme., J. Chem. Theory Comput., 2019,
     15, 1652-1671. DOI: 10.1021/acs.jctc.8b01176
   for GFN1-xTB:
   * S. Grimme, C. Bannwarth, P. Shushkov, J. Chem. Theory Comput., 2017,
     13, 1989-2009. DOI: 10.1021/acs.jctc.7b00118
   for GFN0-xTB:
   * P. Pracht, E. Caldeweyher, S. Ehlert, S. Grimme, ChemRxiv, 2019, preprint.
     DOI: 10.26434/chemrxiv.8326202.v1
   for GFN-FF:
   * S. Spicher and S. Grimme, Angew. Chem. Int. Ed., 2020, 59, 15665-15673.
     DOI: 10.1002/anie.202004239
   
   for ALPB and GBSA implicit solvation:
   * S. Ehlert, M. Stahn, S. Spicher, S. Grimme, J. Chem. Theory Comput.,
     2021, 17, 4250-4261. DOI: 10.1021/acs.jctc.1c00471
   
   for ddCOSMO and CPCM-X implicit solvation:
   * M. Stahn, S. Ehlert, S. Grimme, J. Phys. Chem. A,
     2023, XX, XXXX-XXXX. DOI: 10.1021/acs.jpca.3c04382
   
   for DFT-D4:
   * E. Caldeweyher, C. Bannwarth and S. Grimme, J. Chem. Phys., 2017,
     147, 034112. DOI: 10.1063/1.4993215
   * E. Caldeweyher, S. Ehlert, A. Hansen, H. Neugebauer, S. Spicher,
     C. Bannwarth and S. Grimme, J. Chem. Phys., 2019, 150, 154122.
     DOI: 10.1063/1.5090222
   * E. Caldeweyher, J.-M. Mewes, S. Ehlert and S. Grimme, Phys. Chem. Chem. Phys.
     2020, 22, 8499-8512. DOI: 10.1039/D0CP00502A
   
   for sTDA-xTB:
   * S. Grimme and C. Bannwarth, J. Chem. Phys., 2016, 145, 054103.
     DOI: 10.1063/1.4959605
   
   in the mass-spec context:
   * V. Asgeirsson, C. Bauer and S. Grimme, Chem. Sci., 2017, 8, 4879.
     DOI: 10.1039/c7sc00601b
   * J. Koopman and S. Grimme, ACS Omega 2019, 4, 12, 15120-15133.
     DOI: 10.1021/acsomega.9b02011
   
   for metadynamics refer to:
   * S. Grimme, J. Chem. Theory Comput., 2019, 155, 2847-2862
     DOI: 10.1021/acs.jctc.9b00143
   
   for SPH calculations refer to:
   * S. Spicher and S. Grimme, J. Chem. Theory Comput., 2021, 17, 1701-1714
     DOI: 10.1021/acs.jctc.0c01306
   
   for ONIOM refer to:
   * C. Plett, A. Katbashev, S. Ehlert, S. Grimme, M. Bursch,
     Phys. Chem. Chem. Phys., 2023, 25, 17860-17868. DOI: 10.1039/D3CP02178E
   
   for DIPRO refer to:
   * J. Kohn, N. Gildemeister, S. Grimme, D. Fazzi, A. Hansen,
     J. Chem. Phys., 2023, just accepted.
   
   for PTB refer to:
   * S. Grimme, M. Mueller, A. Hansen, J. Chem. Phys., 2023, 158, 124111.
     DOI: 10.1063/5.0137838
   
   with help from (in alphabetical order)
   P. Atkinson, C. Bannwarth, F. Bohle, G. Brandenburg, E. Caldeweyher
   M. Checinski, S. Dohm, S. Ehlert, S. Ehrlich, I. Gerasimov, C. Hölzer
   A. Katbashev, J. Kohn, J. Koopman, C. Lavigne, S. Lehtola, F. März, M. Müller,
   F. Musil, H. Neugebauer, J. Pisarek, C. Plett, P. Pracht, F. Pultar,
   J. Seibert, P. Shushkov, S. Spicher, M. Stahn, M. Steiner, T. Strunk,
   J. Stückrath, T. Rose, and J. Unsleber
   
 * started run on 2025/10/28 at 16:54:46.721     
   ID    Z sym.   atoms
    1   15 P      1
    2    6 C      2-19, 36-44
    3    1 H      20-35, 50-54
    4    7 N      45, 46
    5    5 B      47
    6    9 F      48, 49

           -------------------------------------------------
          |                Calculation Setup                |
           -------------------------------------------------

          program call               : otool_xtb TPP_BODIPY_Opt_XTB.xyz --grad -c 0 -u 0 -P 1 --namespace TPP_BODIPY_Opt --input TPP_BODIPY_Opt_XTB.input.tmp --acc 0.200000
          calculation namespace      : TPP_BODIPY_Opt
          coordinate file            : TPP_BODIPY_Opt_XTB.xyz
          omp threads                :                     1


           -------------------------------------------------
          |                 G F N 2 - x T B                 |
           -------------------------------------------------

        Reference                      10.1021/acs.jctc.8b01176
      * Hamiltonian:
        H0-scaling (s, p, d)           1.850000    2.230000    2.230000
        zeta-weighting                 0.500000
      * Dispersion:
        s8                             2.700000
        a1                             0.520000
        a2                             5.000000
        s9                             5.000000
      * Repulsion:
        kExp                           1.500000    1.000000
        rExp                           1.000000
      * Coulomb:
        alpha                          2.000000
        third order                    shell-resolved
        anisotropic                    true
        a3                             3.000000
        a5                             4.000000
        cn-shift                       1.200000
        cn-exp                         4.000000
        max-rad                        5.000000


          ...................................................
          :                      SETUP                      :
          :.................................................:
          :  # basis functions                 159          :
          :  # atomic orbitals                 158          :
          :  # shells                           88          :
          :  # electrons                       161          :
          :  max. iterations                   250          :
          :  Hamiltonian                  GFN2-xTB          :
          :  restarted?                      false          :
          :  GBSA solvation                  false          :
          :  PC potential                    false          :
          :  electronic temp.          300.0000000     K    :
          :  accuracy                    0.2000000          :
          :  -> integral cutoff          0.3198970E+02      :
          :  -> integral neglect         0.2000000E-08      :
          :  -> SCF convergence          0.2000000E-06 Eh   :
          :  -> wf. convergence          0.2000000E-04 e    :
          :  Broyden damping             0.4000000          :
          :  net charge                          0          :
          :  unpaired electrons                  0          :
          ...................................................

 iter      E             dE          RMSdq      gap      omega  full diag
   1    -86.9973257 -0.869973E+02  0.555E+00    0.32       0.0  T
   2    -85.1212489  0.187608E+01  0.482E+00    0.17       1.0  T
   3    -78.4849717  0.663628E+01  0.672E+00    0.28       1.0  T
   4    -84.0380441 -0.555307E+01  0.484E+00    0.23       1.0  T
   5    -86.1459890 -0.210794E+01  0.306E+00    0.09       1.0  T
   6    -87.0321409 -0.886152E+00  0.176E+00    0.29       1.0  T
   7    -87.2198027 -0.187662E+00  0.115E+00    0.26       1.0  T
   8    -87.2636734 -0.438707E-01  0.845E-01    0.18       1.0  T
   9    -87.2729378 -0.926445E-02  0.763E-01    0.20       1.0  T
  10    -87.3052292 -0.322914E-01  0.414E-01    0.12       1.0  T
  11    -87.3099592 -0.472995E-02  0.277E-01    0.16       1.0  T
  12    -87.3105949 -0.635747E-03  0.193E-01    0.12       1.0  T
  13    -87.3111701 -0.575139E-03  0.149E-01    0.13       1.0  T
  14    -87.3123155 -0.114543E-02  0.707E-02    0.13       1.0  T
  15    -87.3125902 -0.274696E-03  0.458E-02    0.13       1.0  T
  16    -87.3126188 -0.285581E-04  0.330E-02    0.13       1.0  T
  17    -87.3125964  0.223057E-04  0.379E-02    0.13       1.0  T
  18    -87.3126368 -0.403872E-04  0.216E-02    0.13       1.0  T
  19    -87.3126490 -0.122109E-04  0.155E-02    0.13       1.0  T
  20    -87.3126562 -0.719273E-05  0.100E-02    0.13       1.4  T
  21    -87.3126590 -0.274512E-05  0.629E-03    0.13       2.2  T
  22    -87.3126601 -0.114503E-05  0.436E-03    0.13       3.1  T
  23    -87.3126605 -0.379126E-06  0.269E-03    0.13       5.1  T
  24    -87.3126609 -0.355090E-06  0.116E-03    0.13      11.7  T
  25    -87.3126609 -0.212753E-07  0.697E-04    0.13      19.5  T
  26    -87.3126609 -0.172889E-07  0.338E-04    0.13      40.2  T
  27    -87.3126609 -0.246401E-08  0.202E-04    0.13      67.3  T
  28    -87.3126609 -0.106743E-08  0.120E-04    0.13     113.8  T
  29    -87.3126609 -0.647447E-09  0.329E-05    0.13     413.2  T

   *** convergence criteria satisfied after 29 iterations ***

         #    Occupation            Energy/Eh            Energy/eV
      -------------------------------------------------------------
         1        2.0000           -0.7423688             -20.2009
       ...           ...                  ...                  ...
        75        2.0000           -0.3963562             -10.7854
        76        2.0000           -0.3942701             -10.7286
        77        2.0000           -0.3844858             -10.4624
        78        2.0000           -0.3799967             -10.3402
        79        2.0000           -0.3777378             -10.2788
        80        1.9979           -0.3696801             -10.0595
        81        0.9235           -0.3579967              -9.7416 (HOMO)
        82        0.0786           -0.3533201              -9.6143 (LUMO)
        83        0.0000           -0.3435449              -9.3483
        84                         -0.3218722              -8.7586
        85                         -0.3146600              -8.5623
        86                         -0.3063437              -8.3360
       ...                                ...                  ...
       158                          1.1986992              32.6183
      -------------------------------------------------------------
                  HL-Gap            0.0046765 Eh            0.1273 eV
             Fermi-level           -0.3597501 Eh           -9.7893 eV

 SCC (total)                   0 d,  0 h,  0 min,  0.206 sec
 SCC setup                      ...        0 min,  0.001 sec (  0.282%)
 Dispersion                     ...        0 min,  0.001 sec (  0.565%)
 classical contributions        ...        0 min,  0.000 sec (  0.076%)
 integral evaluation            ...        0 min,  0.024 sec ( 11.738%)
 iterations                     ...        0 min,  0.138 sec ( 67.307%)
 molecular gradient             ...        0 min,  0.040 sec ( 19.494%)
 printout                       ...        0 min,  0.001 sec (  0.523%)

         :::::::::::::::::::::::::::::::::::::::::::::::::::::
         ::                     SUMMARY                     ::
         :::::::::::::::::::::::::::::::::::::::::::::::::::::
         :: total energy             -86.566484965278 Eh    ::
         :: gradient norm              0.596896709380 Eh/a0 ::
         :: HOMO-LUMO gap              0.127255092272 eV    ::
         ::.................................................::
         :: SCC energy               -87.310597321925 Eh    ::
         :: -> isotropic ES            0.098604262779 Eh    ::
         :: -> anisotropic ES          0.003059410327 Eh    ::
         :: -> anisotropic XC          0.050032696337 Eh    ::
         :: -> dispersion             -0.079029268054 Eh    ::
         :: repulsion energy           0.744112356647 Eh    ::
         :: add. restraining           0.000000000000 Eh    ::
         :: total charge              -0.000000000063 e     ::
         :::::::::::::::::::::::::::::::::::::::::::::::::::::


Property printout bound to 'properties.out'

           -------------------------------------------------
          | TOTAL ENERGY              -86.566484965278 Eh   |
          | GRADIENT NORM               0.596896709380 Eh/α |
          | HOMO-LUMO GAP               0.127255092272 eV   |
           -------------------------------------------------

------------------------------------------------------------------------
 * finished run on 2025/10/28 at 16:54:46.952     
------------------------------------------------------------------------
 total:
 * wall-time:     0 d,  0 h,  0 min,  0.230 sec
 *  cpu-time:     0 d,  0 h,  0 min,  0.228 sec
 * ratio c/w:     0.990 speedup
 SCF:
 * wall-time:     0 d,  0 h,  0 min,  0.206 sec
 *  cpu-time:     0 d,  0 h,  0 min,  0.204 sec
 * ratio c/w:     0.990 speedup


-------------------------   --------------------
FINAL SINGLE POINT ENERGY       -86.566484965280
-------------------------   --------------------


-------------
DIPOLE MOMENT
-------------
                                X             Y             Z
Total Dipole Moment    :     -1.72300       3.18300      -0.29100
                        -----------------------------------------
Magnitude (a.u.)       :      3.63110
Magnitude (Debye)      :      9.22953


------------------
CARTESIAN GRADIENT
------------------

   1   P   :    0.003103941    0.012814893   -0.016298155
   2   C   :    0.095585407    0.070871824    0.067813395
   3   C   :   -0.104750915    0.013782211   -0.088150883
   4   C   :    0.115715950    0.015885877   -0.009667372
   5   C   :   -0.024600219   -0.086888302   -0.042647702
   6   C   :   -0.136500438   -0.008694150   -0.020104484
   7   C   :    0.073767117   -0.020476864    0.094575450
   8   C   :    0.028779081    0.004103653   -0.121159433
   9   C   :   -0.029792124    0.071132738    0.106657299
  10   C   :   -0.064471720   -0.021279665   -0.124662492
  11   C   :    0.008438633   -0.025409209    0.099848285
  12   C   :    0.029578148   -0.058516258   -0.025374613
  13   C   :    0.042714303    0.024730544    0.083108464
  14   C   :    0.005649217    0.101941977    0.035311781
  15   C   :    0.019010400   -0.089011432   -0.094184739
  16   C   :   -0.078134568    0.000653886   -0.053295644
  17   C   :    0.098622985    0.033450393    0.012298059
  18   C   :   -0.009215790   -0.028086151    0.105881888
  19   C   :   -0.032724895    0.035737389    0.064193855
  20   H   :   -0.022672303    0.007514021   -0.018899627
  21   H   :   -0.019886014    0.003567891   -0.008599834
  22   H   :    0.020287650    0.011782309    0.003571128
  23   H   :    0.014483714    0.007524992    0.017301751
  24   H   :   -0.019876606   -0.008102851   -0.003494438
  25   H   :   -0.016415132   -0.002579939   -0.015453758
  26   H   :   -0.007649487    0.022182991   -0.004808131
  27   H   :    0.014257070   -0.007535559   -0.010194525
  28   H   :   -0.010730532   -0.027113153   -0.023833929
  29   H   :    0.002125925   -0.022760912   -0.025396959
  30   H   :   -0.008721935   -0.016225324    0.007263878
  31   H   :   -0.014604675    0.018195508   -0.027423750
  32   H   :   -0.004476407   -0.010991980   -0.008971748
  33   H   :   -0.007378655    0.006017414    0.021634554
  34   H   :   -0.009448659    0.001856249   -0.016600586
  35   H   :   -0.010704048    0.014651699    0.006458676
  36   C   :   -0.024039975    0.056029469    0.000284305
  37   C   :   -0.052415887    0.001247618   -0.059955965
  38   C   :    0.076238261    0.003656333    0.117541514
  39   C   :   -0.111646802    0.032189448   -0.038880780
  40   C   :    0.052558070   -0.083361643    0.031560564
  41   C   :    0.072973208    0.024039352    0.057695883
  42   C   :   -0.005291190    0.048003472   -0.053589738
  43   C   :    0.043115756   -0.017598827   -0.083543096
  44   C   :    0.032019620   -0.009271654    0.061739239
  45   N   :    0.050670540   -0.011804557   -0.057403551
  46   N   :   -0.062723299   -0.046398126    0.020253529
  47   B   :   -0.007253114    0.036796432    0.011466456
  48   F   :    0.004527717   -0.033124527    0.022290034
  49   F   :    0.007381212   -0.012077949   -0.029220868
  50   H   :   -0.008492603    0.022524782    0.028902364
  51   H   :    0.009640626   -0.020729110   -0.002604906
  52   H   :   -0.004538537   -0.035005594   -0.003254579
  53   H   :   -0.018840279    0.009468298   -0.010994723
  54   H   :    0.006752258   -0.009309927    0.021018657

Difference to translation invariance:
           :   -0.0000000000   -0.0000000000   -0.0000000000

Difference to rotation invariance:
           :    0.0000000165    0.0000001410   -0.0000000149

Norm of the Cartesian gradient     ...    0.5968967094
RMS gradient                       ...    0.0468966345
MAX gradient                       ...    0.1365004379
------------------------------------------------------------------------------
                         ORCA GEOMETRY RELAXATION STEP
------------------------------------------------------------------------------

Reading the OPT-File                    .... done
Getting information on internals        .... done
Copying old internal coords+grads       .... done
Making the new internal coordinates     .... (2022 redundants) done
Validating the new internal coordinates .... (2022 redundants) done
Calculating the B-matrix                .... done
Calculating the G,G- and P matrices     .... done
Transforming gradient to internals      .... done
Projecting the internal gradient        .... done
Number of atoms                         ....  54
Number of internal coordinates          .... 308
Current Energy                          ....   -86.566484965 Eh
Current gradient norm                   ....     0.596896709 Eh/bohr
Maximum allowed component of the step   ....  0.300
Current trust radius                    ....  0.300
Evaluating the initial hessian          ....  (Almloef) done
Projecting the Hessian                  .... done
Forming the augmented Hessian           .... done
Diagonalizing the augmented Hessian     .... done
Last element of RFO vector              ....  0.807380411
Lowest eigenvalues of augmented Hessian:
 -0.303315147  0.010000000  0.010000000  0.010000000  0.010051967
Length of the computed step             ....  0.730797079
Warning: the length of the step is outside the trust region - taking restricted step instead
The input lambda is                     ....     0.009000
   iter:   5  x=   -0.014776  g= 1469.592692 f(x)=    17.452465
   iter:  10  x=   -0.517740  g=    2.070939 f(x)=     0.445732
   iter:  15  x=   -1.113476  g=    0.127401 f(x)=     0.000023
The output lambda is                    ....    -1.113476 (17 iterations)
The final length of the internal step   ....  0.300000000
Converting the step to Cartesian space:
 Initial RMS(Int)=    0.0170940865
Transforming coordinates:
 Iter   0:  RMS(Cart)=    0.0879239389 RMS(Int)=    0.3582458679
done
Storing new coordinates                 .... done

                                .--------------------.
          ----------------------|Geometry convergence|-------------------------
          Item                value                   Tolerance       Converged
          ---------------------------------------------------------------------
          RMS gradient        0.0244697569            0.0001000000      NO
          MAX gradient        0.1018246926            0.0003000000      NO
          RMS step            0.0170940865            0.0020000000      NO
          MAX step            0.0691147738            0.0040000000      NO
          -------------------------------------------------------------------------
          ........................................................
          Max(Bonds)      0.0366      Max(Angles)    1.64
          Max(Dihed)        1.50      Max(Improp)    0.00
          ---------------------------------------------------------------------

The optimization has not yet converged - more geometry cycles are needed


    ---------------------------------------------------------------------------
                         Redundant Internal Coordinates
                            (Angstroem and degrees)

        Definition                    Value    dE/dq     Step     New-Value
    ----------------------------------------------------------------------------
     1. B(C   2,C   1)                1.5255  0.073293 -0.0260    1.4996   
     2. B(C   3,C   2)                1.5249  0.075765 -0.0268    1.4980   
     3. B(C   4,P   0)                1.8907 -0.003970  0.0015    1.8921   
     4. B(C   4,C   3)                1.5426  0.075700 -0.0273    1.5153   
     5. B(C   5,C   1)                1.5282  0.073686 -0.0262    1.5021   
     6. B(C   6,C   4)                1.5384  0.075469 -0.0271    1.5113   
     7. B(C   6,C   5)                1.5279  0.079275 -0.0281    1.4997   
     8. B(C   8,C   7)                1.5339  0.075861 -0.0270    1.5068   
     9. B(C   9,C   8)                1.5289  0.060924 -0.0217    1.5072   
    10. B(C  10,C   9)                1.5277  0.081014 -0.0288    1.4988   
    11. B(C  11,C  10)                1.5304  0.051383 -0.0183    1.5120   
    12. B(C  12,C  11)                1.5322  0.051438 -0.0183    1.5139   
    13. B(C  12,C   7)                1.5562  0.083255 -0.0302    1.5259   
    14. B(C  12,P   0)                1.9171  0.029779 -0.0111    1.9060   
    15. B(C  14,C  13)                1.5256  0.094594 -0.0335    1.4920   
    16. B(C  15,C  14)                1.5351  0.062439 -0.0223    1.5128   
    17. B(C  15,P   0)                1.8895  0.001960 -0.0007    1.8888   
    18. B(C  16,C  13)                1.5311  0.053421 -0.0190    1.5121   
    19. B(C  17,C  16)                1.5369  0.089602 -0.0321    1.5048   
    20. B(C  18,C  17)                1.5281  0.066074 -0.0235    1.5046   
    21. B(C  18,C  15)                1.5413  0.101825 -0.0366    1.5047   
    22. B(H  20,C   1)                1.1100  0.014368 -0.0053    1.1047   
    23. B(H  21,C   2)                1.1101  0.015823 -0.0058    1.1044   
    24. B(H  22,C   5)                1.1096  0.015349 -0.0056    1.1040   
    25. B(H  23,C   6)                1.1093  0.014947 -0.0055    1.1039   
    26. B(H  24,C   3)                1.1105  0.014489 -0.0053    1.1052   
    27. B(H  25,C  14)                1.1081  0.017815 -0.0065    1.1016   
    28. B(H  26,C  13)                1.1098  0.014837 -0.0054    1.1044   
    29. B(H  27,C  16)                1.1113  0.021559 -0.0079    1.1034   
    30. B(H  28,C  17)                1.1108  0.020789 -0.0076    1.1032   
    31. B(H  29,C  18)                1.1082  0.017649 -0.0064    1.1018   
    32. B(H  30,C  11)                1.1105  0.020744 -0.0076    1.1029   
    33. B(H  31,C  10)                1.1090  0.012920 -0.0047    1.1043   
    34. B(H  32,C   9)                1.1104  0.016090 -0.0059    1.1045   
    35. B(H  33,C   8)                1.1103  0.014982 -0.0055    1.1048   
    36. B(H  34,C   7)                1.1031  0.011129 -0.0040    1.0991   
    37. B(C  35,P   0)                1.9146  0.048791 -0.0182    1.8964   
    38. B(C  36,C  35)                1.5274  0.052103 -0.0185    1.5089   
    39. B(C  37,C  36)                1.5107  0.062411 -0.0217    1.4890   
    40. B(C  38,C  37)                1.5099  0.055558 -0.0193    1.4906   
    41. B(C  39,C  38)                1.5181  0.067992 -0.0240    1.4940   
    42. B(C  39,H  19)                1.1079  0.018548 -0.0068    1.1011   
    43. B(C  40,C  35)                1.5392  0.086631 -0.0312    1.5080   
    44. B(C  41,C  40)                1.5193  0.046949 -0.0165    1.5028   
    45. B(C  42,C  41)                1.5191  0.028584 -0.0101    1.5090   
    46. B(C  43,C  42)                1.5216  0.063755 -0.0226    1.4990   
    47. B(N  44,C  39)                1.4608  0.046913 -0.0162    1.4446   
    48. B(N  44,C  36)                1.4668  0.052565 -0.0181    1.4487   
    49. B(N  45,C  43)                1.4557  0.055224 -0.0189    1.4368   
    50. B(N  45,C  40)                1.4604  0.050795 -0.0175    1.4429   
    51. B(B  46,N  45)                1.5580  0.009118 -0.0031    1.5548   
    52. B(B  46,N  44)                1.5588  0.007362 -0.0025    1.5563   
    53. B(F  47,B  46)                1.4598  0.040137 -0.0134    1.4464   
    54. B(F  48,B  46)                1.4587  0.031865 -0.0107    1.4480   
    55. B(H  49,C  42)                1.1092  0.018062 -0.0066    1.1026   
    56. B(H  50,C  43)                1.1071  0.021405 -0.0078    1.0993   
    57. B(H  51,C  41)                1.1090  0.020114 -0.0073    1.1017   
    58. B(H  52,C  37)                1.1076  0.014988 -0.0055    1.1022   
    59. B(H  53,C  38)                1.1092  0.017826 -0.0065    1.1027   
    60. A(C   4,P   0,C  12)           80.97 -0.031879    1.24     82.21   
    61. A(C  15,P   0,C  35)           86.16 -0.027002    1.06     87.22   
    62. A(C   4,P   0,C  35)          142.48 -0.000960    0.02    142.50   
    63. A(C   4,P   0,C  15)           72.51  0.011302   -0.36     72.15   
    64. A(C  12,P   0,C  15)          145.58 -0.022225    0.95    146.52   
    65. A(C  12,P   0,C  35)          102.93  0.039814   -1.64    101.29   
    66. A(C   5,C   1,H  20)          109.72 -0.007940    0.39    110.11   
    67. A(C   2,C   1,C   5)          109.97 -0.009444    0.45    110.42   
    68. A(C   2,C   1,H  20)          109.09 -0.009505    0.46    109.55   
    69. A(C   3,C   2,H  21)          109.40 -0.008101    0.39    109.79   
    70. A(C   1,C   2,C   3)          111.66 -0.007632    0.37    112.02   
    71. A(C   1,C   2,H  21)          110.78 -0.006754    0.33    111.11   
    72. A(C   2,C   3,C   4)          113.56 -0.003991    0.21    113.77   
    73. A(C   4,C   3,H  24)          111.17 -0.002312    0.14    111.31   
    74. A(C   2,C   3,H  24)          108.57 -0.011444    0.52    109.10   
    75. A(P   0,C   4,C   3)          117.47  0.001436   -0.07    117.40   
    76. A(P   0,C   4,C   6)          125.01  0.001053   -0.05    124.95   
    77. A(C   3,C   4,C   6)          116.01 -0.002071    0.10    116.11   
    78. A(C   1,C   5,C   6)          112.10 -0.006848    0.33    112.43   
    79. A(C   6,C   5,H  22)          109.40 -0.008498    0.41    109.81   
    80. A(C   1,C   5,H  22)          109.98 -0.007599    0.37    110.35   
    81. A(C   4,C   6,H  23)          111.41 -0.002199    0.13    111.54   
    82. A(C   5,C   6,H  23)          109.67 -0.008915    0.42    110.09   
    83. A(C   4,C   6,C   5)          112.79 -0.006476    0.31    113.10   
    84. A(C  12,C   7,H  34)          118.55  0.001023   -0.03    118.52   
    85. A(C   8,C   7,H  34)          105.47 -0.017562    0.77    106.23   
    86. A(C   8,C   7,C  12)          110.33  0.000679    0.04    110.37   
    87. A(C   7,C   8,H  33)          111.10  0.000101    0.06    111.17   
    88. A(C   9,C   8,H  33)          109.02 -0.010453    0.49    109.51   
    89. A(C   7,C   8,C   9)          111.22 -0.016503    0.72    111.94   
    90. A(C  10,C   9,H  32)          110.26 -0.005981    0.30    110.56   
    91. A(C   8,C   9,H  32)          110.21 -0.008046    0.39    110.60   
    92. A(C   8,C   9,C  10)          111.49 -0.007134    0.36    111.85   
    93. A(C   9,C  10,H  31)          111.42 -0.011169    0.50    111.93   
    94. A(C  11,C  10,H  31)          111.21 -0.001283    0.11    111.32   
    95. A(C   9,C  10,C  11)          110.71 -0.005825    0.26    110.97   
    96. A(C  10,C  11,C  12)          110.57  0.007479   -0.24    110.33   
    97. A(C  10,C  11,H  30)          114.08 -0.006744    0.28    114.37   
    98. A(C  12,C  11,H  30)          114.00 -0.006866    0.31    114.30   
    99. A(P   0,C  12,C   7)          122.83 -0.006180    0.25    123.08   
   100. A(C   7,C  12,C  11)          103.20 -0.017549    0.77    103.97   
   101. A(P   0,C  12,C  11)          117.67  0.018884   -0.78    116.90   
   102. A(C  14,C  13,H  26)          111.68 -0.011109    0.53    112.20   
   103. A(C  14,C  13,C  16)          110.80 -0.008638    0.40    111.20   
   104. A(C  16,C  13,H  26)          110.47 -0.003447    0.20    110.68   
   105. A(C  13,C  14,C  15)          111.77 -0.005142    0.25    112.03   
   106. A(C  15,C  14,H  25)          112.17 -0.004125    0.21    112.38   
   107. A(C  13,C  14,H  25)          110.92 -0.007203    0.34    111.26   
   108. A(C  14,C  15,C  18)          117.09 -0.000413    0.03    117.13   
   109. A(P   0,C  15,C  18)          123.32  0.007620   -0.30    123.02   
   110. A(P   0,C  15,C  14)          117.08 -0.007433    0.28    117.36   
   111. A(C  17,C  16,H  27)          109.73 -0.006826    0.33    110.06   
   112. A(C  13,C  16,H  27)          109.36 -0.012823    0.59    109.95   
   113. A(C  13,C  16,C  17)          115.39  0.004886   -0.16    115.23   
   114. A(C  16,C  17,C  18)          115.81 -0.006055    0.26    116.07   
   115. A(C  18,C  17,H  28)          110.40 -0.007814    0.38    110.78   
   116. A(C  16,C  17,H  28)          110.46 -0.004160    0.24    110.69   
   117. A(C  15,C  18,C  17)          116.36 -0.005669    0.25    116.61   
   118. A(C  15,C  18,H  29)          116.52 -0.003632    0.18    116.69   
   119. A(C  17,C  18,H  29)          114.56 -0.000762    0.07    114.63   
   120. A(P   0,C  35,C  36)          124.55  0.019624   -0.76    123.79   
   121. A(C  36,C  35,C  40)          110.61 -0.027663    1.09    111.70   
   122. A(P   0,C  35,C  40)          123.25  0.007370   -0.30    122.95   
   123. A(C  35,C  36,C  37)          119.46 -0.014654    0.63    120.10   
   124. A(C  37,C  36,N  44)          107.81 -0.001719    0.09    107.90   
   125. A(C  35,C  36,N  44)          119.16  0.008792   -0.35    118.81   
   126. A(C  36,C  37,C  38)           97.40 -0.013746    0.64     98.04   
   127. A(C  38,C  37,H  52)          111.89 -0.015858    0.74    112.62   
   128. A(C  36,C  37,H  52)          112.95 -0.008101    0.41    113.36   
   129. A(C  39,C  38,H  53)          114.08 -0.006864    0.34    114.42   
   130. A(C  37,C  38,H  53)          115.40 -0.009747    0.45    115.85   
   131. A(C  37,C  38,C  39)          102.45 -0.004349    0.23    102.68   
   132. A(C  38,C  39,N  44)          107.91 -0.004942    0.22    108.14   
   133. A(H  19,C  39,N  44)          112.30 -0.005189    0.27    112.56   
   134. A(H  19,C  39,C  38)          112.69 -0.009547    0.46    113.15   
   135. A(C  41,C  40,N  45)          108.46 -0.001732    0.09    108.55   
   136. A(C  35,C  40,N  45)          116.87  0.004127   -0.15    116.72   
   137. A(C  35,C  40,C  41)          122.26 -0.011693    0.51    122.77   
   138. A(C  40,C  41,H  51)          109.79 -0.001691    0.08    109.88   
   139. A(C  42,C  41,H  51)          108.94 -0.010598    0.49    109.43   
   140. A(C  40,C  41,C  42)          102.15  0.001595   -0.03    102.11   
   141. A(C  43,C  42,H  49)          107.05 -0.009568    0.44    107.49   
   142. A(C  41,C  42,H  49)          111.07 -0.013670    0.61    111.68   
   143. A(C  41,C  42,C  43)          104.73  0.005367   -0.18    104.55   
   144. A(N  45,C  43,H  50)          119.00  0.009354   -0.36    118.64   
   145. A(C  42,C  43,H  50)          121.16 -0.003984    0.20    121.36   
   146. A(C  42,C  43,N  45)          110.08 -0.011047    0.43    110.51   
   147. A(C  39,N  44,B  46)          112.34 -0.007165    0.27    112.60   
   148. A(C  36,N  44,B  46)          116.38  0.006001   -0.24    116.14   
   149. A(C  36,N  44,C  39)          103.44 -0.001540    0.10    103.54   
   150. A(C  43,N  45,B  46)          115.63 -0.003146    0.12    115.76   
   151. A(C  40,N  45,B  46)          113.65  0.004671   -0.20    113.46   
   152. A(C  40,N  45,C  43)          101.33 -0.003702    0.17    101.49   
   153. A(F  47,B  46,F  48)          106.54 -0.002115    0.10    106.64   
   154. A(N  45,B  46,F  48)          111.58  0.006527   -0.27    111.31   
   155. A(N  44,B  46,F  48)          106.55 -0.007371    0.29    106.84   
   156. A(N  45,B  46,F  47)          107.81 -0.003999    0.13    107.94   
   157. A(N  44,B  46,F  47)          113.56 -0.000087   -0.00    113.56   
   158. A(N  44,B  46,N  45)          110.78  0.007025   -0.25    110.53   
   159. D(H  21,C   2,C   1,H  20)     58.01  0.017233   -0.83     57.19   
   160. D(H  21,C   2,C   1,C   5)    178.39 -0.004253    0.22    178.61   
   161. D(C   3,C   2,C   1,C   5)    -59.41 -0.024758    1.21    -58.20   
   162. D(C   3,C   2,C   1,H  20)   -179.79 -0.003272    0.17   -179.62   
   163. D(C   4,C   3,C   2,H  21)    172.58 -0.002302    0.11    172.69   
   164. D(H  24,C   3,C   2,C   1)    173.80  0.002689   -0.12    173.68   
   165. D(H  24,C   3,C   2,H  21)    -63.21 -0.016756    0.83    -62.38   
   166. D(C   4,C   3,C   2,C   1)     49.59  0.017143   -0.84     48.76   
   167. D(C   6,C   4,P   0,C  15)    -81.66  0.011451   -0.52    -82.18   
   168. D(P   0,C   4,C   3,C   2)    152.81 -0.012468    0.59    153.41   
   169. D(C   6,C   4,P   0,C  12)     76.13  0.001676   -0.11     76.02   
   170. D(C   3,C   4,P   0,C  12)   -118.51  0.003371   -0.17   -118.67   
   171. D(C   3,C   4,P   0,C  15)     83.70  0.013146   -0.58     83.13   
   172. D(C   3,C   4,P   0,C  35)    142.00 -0.020741    0.91    142.91   
   173. D(C   6,C   4,C   3,C   2)    -40.50 -0.010519    0.52    -39.98   
   174. D(P   0,C   4,C   3,H  24)     30.03  0.007364   -0.36     29.67   
[...]
  NO LB    ZA    FRAG    MASS        X           Y           Z
   0 P  15.0000    0    30.974   -4.455025   15.581960    6.250020
   1 C   6.0000    0    12.011   -7.026287   21.554719   11.943747
   2 C   6.0000    0    12.011   -6.738999   22.158420    9.410730
   3 C   6.0000    0    12.011   -6.019243   20.315308    7.705511
   4 C   6.0000    0    12.011   -5.618323   17.847910    8.536150
   5 C   6.0000    0    12.011   -6.564343   19.114848   12.777665
   6 C   6.0000    0    12.011   -5.840560   17.257703   11.085542
   7 C   6.0000    0    12.011   -8.844601   16.773163    3.412523
   8 C   6.0000    0    12.011  -10.364064   16.485389    1.304293
   9 C   6.0000    0    12.011   -9.561227   15.025142   -0.714871
  10 C   6.0000    0    12.011   -7.233788   13.819550   -0.624897
  11 C   6.0000    0    12.011   -5.711124   14.085936    1.476266
  12 C   6.0000    0    12.011   -6.489815   15.607037    3.485061
  13 C   6.0000    0    12.011    1.324603   19.149026    2.562709
  14 C   6.0000    0    12.011   -1.004466   18.058245    3.045223
  15 C   6.0000    0    12.011   -1.437202   16.919371    5.369145
  16 C   6.0000    0    12.011    3.195698   19.121494    4.392441
  17 C   6.0000    0    12.011    2.747169   18.012925    6.725460
  18 C   6.0000    0    12.011    0.428795   16.923925    7.225549
  19 H   1.0000    0     1.008   -8.707933    7.095979   12.145792
  20 H   1.0000    0     1.008   -7.592246   22.995711   13.272411
  21 H   1.0000    0     1.008   -7.068020   24.067156    8.768008
  22 H   1.0000    0     1.008   -6.762179   18.655376   14.754908
  23 H   1.0000    0     1.008   -5.472278   15.356149   11.727471
  24 H   1.0000    0     1.008   -5.764249   20.771983    5.727710
  25 H   1.0000    0     1.008   -2.466619   18.069145    1.617924
  26 H   1.0000    0     1.008    1.677013   20.020818    0.751603
  27 H   1.0000    0     1.008    5.010198   19.968240    4.001806
  28 H   1.0000    0     1.008    4.206764   17.998151    8.149815
  29 H   1.0000    0     1.008    0.051818   16.035379    9.026951
  30 H   1.0000    0     1.008   -3.911067   13.121257    1.596249
  31 H   1.0000    0     1.008   -6.621248   12.659312   -2.187238
  32 H   1.0000    0     1.008  -10.757969   14.806083   -2.352033
  33 H   1.0000    0     1.008  -12.188121   17.398253    1.242845
  34 H   1.0000    0     1.008   -9.476942   17.909251    4.988263
  35 C   6.0000    0    12.011   -4.126017   12.547582    7.544812
  36 C   6.0000    0    12.011   -6.276971   11.534075    8.802160
  37 C   6.0000    0    12.011   -8.772961   12.405354    8.936835
  38 C   6.0000    0    12.011  -10.115972   10.639237   10.349464
  39 C   6.0000    0    12.011   -8.417720    8.770500   11.043903
  40 C   6.0000    0    12.011   -2.001978   10.962996    7.104937
  41 C   6.0000    0    12.011    0.049679   11.127705    5.437135
  42 C   6.0000    0    12.011    1.486431    8.953326    5.779895
  43 C   6.0000    0    12.011    0.298440    7.538648    7.634579
  44 N   7.0000    0    14.007   -6.119626    9.305001   10.094406
  45 N   7.0000    0    14.007   -1.804815    8.735663    8.407868
  46 B   5.0000    0    10.810   -3.603818    7.914055   10.548814
  47 F   9.0000    0    18.998   -2.604902    8.668910   12.864547
  48 F   9.0000    0    18.998   -3.941002    5.335204   10.533142
  49 H   1.0000    0     1.008    3.187031    8.455006    4.796255
  50 H   1.0000    0     1.008    0.816978    5.753787    8.439691
  51 H   1.0000    0     1.008    0.404980   12.610181    4.098112
  52 H   1.0000    0     1.008   -9.495427   14.081945    8.044010
  53 H   1.0000    0     1.008  -12.088021   10.697185   10.813569

      -----------------------------------------------------------      
     |                   =====================                   |     
     |                           x T B                           |     
     |                   =====================                   |     
     |                         S. Grimme                         |     
     |          Mulliken Center for Theoretical Chemistry        |     
     |                    University of Bonn                     |     
      -----------------------------------------------------------      

   * xtb version 6.7.1 (edcfbbe) compiled by 'albert@albert-system' on 2024-07-22

   xtb is free software: you can redistribute it and/or modify it under
   the terms of the GNU Lesser General Public License as published by
   the Free Software Foundation, either version 3 of the License, or
   (at your option) any later version.
   
   xtb is distributed in the hope that it will be useful,
   but WITHOUT ANY WARRANTY; without even the implied warranty of
   MERCHANTABILITY or FITNESS FOR A PARTICULAR PURPOSE.  See the
   GNU Lesser General Public License for more details.
   
   Cite this work as:
   * C. Bannwarth, E. Caldeweyher, S. Ehlert, A. Hansen, P. Pracht,
     J. Seibert, S. Spicher, S. Grimme, WIREs Comput. Mol. Sci., 2020, 11,
     e01493. DOI: 10.1002/wcms.1493
   
   for GFN2-xTB:
   * C. Bannwarth, S. Ehlert and S. Grimme., J. Chem. Theory Comput., 2019,
     15, 1652-1671. DOI: 10.1021/acs.jctc.8b01176
   for GFN1-xTB:
   * S. Grimme, C. Bannwarth, P. Shushkov, J. Chem. Theory Comput., 2017,
     13, 1989-2009. DOI: 10.1021/acs.jctc.7b00118
   for GFN0-xTB:
   * P. Pracht, E. Caldeweyher, S. Ehlert, S. Grimme, ChemRxiv, 2019, preprint.
     DOI: 10.26434/chemrxiv.8326202.v1
   for GFN-FF:
   * S. Spicher and S. Grimme, Angew. Chem. Int. Ed., 2020, 59, 15665-15673.
     DOI: 10.1002/anie.202004239
   
   for ALPB and GBSA implicit solvation:
   * S. Ehlert, M. Stahn, S. Spicher, S. Grimme, J. Chem. Theory Comput.,
     2021, 17, 4250-4261. DOI: 10.1021/acs.jctc.1c00471
   
   for ddCOSMO and CPCM-X implicit solvation:
   * M. Stahn, S. Ehlert, S. Grimme, J. Phys. Chem. A,
     2023, XX, XXXX-XXXX. DOI: 10.1021/acs.jpca.3c04382
   
   for DFT-D4:
   * E. Caldeweyher, C. Bannwarth and S. Grimme, J. Chem. Phys., 2017,
     147, 034112. DOI: 10.1063/1.4993215
   * E. Caldeweyher, S. Ehlert, A. Hansen, H. Neugebauer, S. Spicher,
     C. Bannwarth and S. Grimme, J. Chem. Phys., 2019, 150, 154122.
     DOI: 10.1063/1.5090222
   * E. Caldeweyher, J.-M. Mewes, S. Ehlert and S. Grimme, Phys. Chem. Chem. Phys.
     2020, 22, 8499-8512. DOI: 10.1039/D0CP00502A
   
   for sTDA-xTB:
   * S. Grimme and C. Bannwarth, J. Chem. Phys., 2016, 145, 054103.
     DOI: 10.1063/1.4959605
   
   in the mass-spec context:
   * V. Asgeirsson, C. Bauer and S. Grimme, Chem. Sci., 2017, 8, 4879.
     DOI: 10.1039/c7sc00601b
   * J. Koopman and S. Grimme, ACS Omega 2019, 4, 12, 15120-15133.
     DOI: 10.1021/acsomega.9b02011
   
   for metadynamics refer to:
   * S. Grimme, J. Chem. Theory Comput., 2019, 155, 2847-2862
     DOI: 10.1021/acs.jctc.9b00143
   
   for SPH calculations refer to:
   * S. Spicher and S. Grimme, J. Chem. Theory Comput., 2021, 17, 1701-1714
     DOI: 10.1021/acs.jctc.0c01306
   
   for ONIOM refer to:
   * C. Plett, A. Katbashev, S. Ehlert, S. Grimme, M. Bursch,
     Phys. Chem. Chem. Phys., 2023, 25, 17860-17868. DOI: 10.1039/D3CP02178E
   
   for DIPRO refer to:
   * J. Kohn, N. Gildemeister, S. Grimme, D. Fazzi, A. Hansen,
     J. Chem. Phys., 2023, just accepted.
   
   for PTB refer to:
   * S. Grimme, M. Mueller, A. Hansen, J. Chem. Phys., 2023, 158, 124111.
     DOI: 10.1063/5.0137838
   
   with help from (in alphabetical order)
   P. Atkinson, C. Bannwarth, F. Bohle, G. Brandenburg, E. Caldeweyher
   M. Checinski, S. Dohm, S. Ehlert, S. Ehrlich, I. Gerasimov, C. Hölzer
   A. Katbashev, J. Kohn, J. Koopman, C. Lavigne, S. Lehtola, F. März, M. Müller,
   F. Musil, H. Neugebauer, J. Pisarek, C. Plett, P. Pracht, F. Pultar,
   J. Seibert, P. Shushkov, S. Spicher, M. Stahn, M. Steiner, T. Strunk,
   J. Stückrath, T. Rose, and J. Unsleber
   
 * started run on 2025/10/28 at 16:54:55.823     
   ID    Z sym.   atoms
    1   15 P      1
    2    6 C      2-19, 36-44
    3    1 H      20-35, 50-54
    4    7 N      45, 46
    5    5 B      47
    6    9 F      48, 49

           -------------------------------------------------
          |                Calculation Setup                |
           -------------------------------------------------

          program call               : otool_xtb TPP_BODIPY_Opt_XTB.xyz --grad -c 0 -u 0 -P 1 --namespace TPP_BODIPY_Opt --input TPP_BODIPY_Opt_XTB.input.tmp --acc 0.200000
          calculation namespace      : TPP_BODIPY_Opt
          coordinate file            : TPP_BODIPY_Opt_XTB.xyz
          omp threads                :                     1


           -------------------------------------------------
          |                 G F N 2 - x T B                 |
           -------------------------------------------------

        Reference                      10.1021/acs.jctc.8b01176
      * Hamiltonian:
        H0-scaling (s, p, d)           1.850000    2.230000    2.230000
        zeta-weighting                 0.500000
      * Dispersion:
        s8                             2.700000
        a1                             0.520000
        a2                             5.000000
        s9                             5.000000
      * Repulsion:
        kExp                           1.500000    1.000000
        rExp                           1.000000
      * Coulomb:
        alpha                          2.000000
        third order                    shell-resolved
        anisotropic                    true
        a3                             3.000000
        a5                             4.000000
        cn-shift                       1.200000
        cn-exp                         4.000000
        max-rad                        5.000000

q/qsh data taken from xtbrestart
CAMM data taken from xtbrestart

          ...................................................
          :                      SETUP                      :
          :.................................................:
          :  # basis functions                 159          :
          :  # atomic orbitals                 158          :
          :  # shells                           88          :
          :  # electrons                       161          :
          :  max. iterations                   250          :
          :  Hamiltonian                  GFN2-xTB          :
          :  restarted?                       true          :
          :  GBSA solvation                  false          :
          :  PC potential                    false          :
          :  electronic temp.          300.0000000     K    :
          :  accuracy                    0.2000000          :
          :  -> integral cutoff          0.3198970E+02      :
          :  -> integral neglect         0.2000000E-08      :
          :  -> SCF convergence          0.2000000E-06 Eh   :
          :  -> wf. convergence          0.2000000E-04 e    :
          :  Broyden damping             0.4000000          :
          :  net charge                          0          :
          :  unpaired electrons                  0          :
          ...................................................

 iter      E             dE          RMSdq      gap      omega  full diag
   1    -89.1205892 -0.891206E+02  0.164E-02    0.78       0.0  T
   2    -89.1205893 -0.325907E-07  0.965E-03    0.78       1.4  T
   3    -89.1205891  0.166144E-06  0.171E-03    0.78       7.9  T
   4    -89.1205893 -0.188212E-06  0.351E-04    0.78      38.7  T
   5    -89.1205893 -0.223082E-08  0.195E-04    0.78      69.9  T
   6    -89.1205893 -0.852282E-09  0.680E-05    0.78     200.2  T

   *** convergence criteria satisfied after 6 iterations ***

         #    Occupation            Energy/Eh            Energy/eV
      -------------------------------------------------------------
         1        2.0000           -0.7300885             -19.8667
       ...           ...                  ...                  ...
        75        2.0000           -0.4112227             -11.1899
        76        2.0000           -0.4084483             -11.1144
        77        2.0000           -0.3952043             -10.7541
        78        2.0000           -0.3821467             -10.3987
        79        2.0000           -0.3808028             -10.3622
        80        2.0000           -0.3585219              -9.7559
        81        1.0000           -0.3095171              -8.4224 (HOMO)
        82        0.0000           -0.2809265              -7.6444 (LUMO)
        83                         -0.2703993              -7.3579
        84                         -0.2652887              -7.2189
        85                         -0.2571451              -6.9973
        86                         -0.2551424              -6.9428
       ...                                ...                  ...
       158                          1.0009042              27.2360
      -------------------------------------------------------------
                  HL-Gap            0.0285906 Eh            0.7780 eV
             Fermi-level           -0.3146207 Eh           -8.5613 eV

 SCC (total)                   0 d,  0 h,  0 min,  0.175 sec
 SCC setup                      ...        0 min,  0.002 sec (  1.184%)
 Dispersion                     ...        0 min,  0.004 sec (  2.336%)
 classical contributions        ...        0 min,  0.000 sec (  0.280%)
 integral evaluation            ...        0 min,  0.066 sec ( 37.838%)
 iterations                     ...        0 min,  0.051 sec ( 28.863%)
 molecular gradient             ...        0 min,  0.050 sec ( 28.792%)
 printout                       ...        0 min,  0.001 sec (  0.658%)

         :::::::::::::::::::::::::::::::::::::::::::::::::::::
         ::                     SUMMARY                     ::
         :::::::::::::::::::::::::::::::::::::::::::::::::::::
         :: total energy             -87.684718162806 Eh    ::
         :: gradient norm              0.000615758859 Eh/a0 ::
         :: HOMO-LUMO gap              0.777990385605 eV    ::
         ::.................................................::
         :: SCC energy               -89.118091753348 Eh    ::
         :: -> isotropic ES            0.105323000331 Eh    ::
         :: -> anisotropic ES         -0.003033277006 Eh    ::
         :: -> anisotropic XC          0.040625035676 Eh    ::
         :: -> dispersion             -0.080116620786 Eh    ::
         :: repulsion energy           1.433373590542 Eh    ::
         :: add. restraining           0.000000000000 Eh    ::
         :: total charge              -0.000000000004 e     ::
         :::::::::::::::::::::::::::::::::::::::::::::::::::::


Property printout bound to 'properties.out'

           -------------------------------------------------
          | TOTAL ENERGY              -87.684718162806 Eh   |
          | GRADIENT NORM               0.000615758859 Eh/α |
          | HOMO-LUMO GAP               0.777990385605 eV   |
           -------------------------------------------------

------------------------------------------------------------------------
 * finished run on 2025/10/28 at 16:54:56.048     
------------------------------------------------------------------------
 total:
 * wall-time:     0 d,  0 h,  0 min,  0.223 sec
 *  cpu-time:     0 d,  0 h,  0 min,  0.218 sec
 * ratio c/w:     0.976 speedup
 SCF:
 * wall-time:     0 d,  0 h,  0 min,  0.175 sec
 *  cpu-time:     0 d,  0 h,  0 min,  0.172 sec
 * ratio c/w:     0.982 speedup


-------------------------   --------------------
FINAL SINGLE POINT ENERGY       -87.684718162810
-------------------------   --------------------


-------------
DIPOLE MOMENT
-------------
                                X             Y             Z
Total Dipole Moment    :     -0.44700       4.61300      -2.58700
                        -----------------------------------------
Magnitude (a.u.)       :      5.30774
Magnitude (Debye)      :     13.49121

                                *** OPTIMIZATION RUN DONE ***


--------------------------------
SUGGESTED CITATIONS FOR THIS RUN
--------------------------------

Below you find a list of papers that are relevant to this ORCA run
We neither can nor want to force you to cite these papers, but we appreciate if you do
You receive ORCA, which is the product of decades of hard work by many enthusiastic individuals, for free
The only thing we kindly ask in return is that you cite our papers,
We deeply appreciate it, if you show your appreciation for ORCA by not just citing the generic ORCA reference.

Please note that relegating all ORCA citations to the supporting information does *not* help us.
SI sections are not indexed - citations you put there will not count into any citation statistics
But we need these citations in order to attract the funding resources that allow us to do what we are doing

Therefore, if you are a happy ORCA user, please consider citing a few of the papers listed below in the main body of your paper

In addition to the list printed below, the program has created the file TPP_BODIPY_Opt.bibtex that contains the list in bibtex format
You can import this file easily into all common literature databanks and citation aid programs


List of essential papers. We consider these as the minimum necessary citations

  1. Bannwarth, C.; Ehlert, S.; Grimme, S.
     GFN2-xTB—An Accurate and Broadly Parametrized Self-Consistent Tight-Binding Quantum Chemical Method with Multipole Electrostatics and Density-Dependent Dispersion Contributions
     J. Chem. Theory Comput. 2019 15(3), 1652-1671
     doi.org/10.1021/acs.jctc.8b01176
  2. Neese, F.
     Software update: the ORCA program system, version 6.0
     WIRES Comput. Molec. Sci. 2025 15(1), e70019
     doi.org/10.1002/wcms.7019

List of papers to cite with high priority. The work reported in these papers was absolutely
necessary for this run to complete.
Our perspective: the developers of density functionals and basis sets usually get cited in chemistry papers
Good! But without the algorithms to do something with them, the functionals or basis sets would not do anything.
Hence, in our opinion, the algorithm design and method developments papers are equally worthy of getting cited

  1. Bannwarth, C.; Caldeweyher, E.; Ehlert, S.; Hansen, A.; Pracht, P.; Seibert, J.; Spicher, S.; Grimme, S.
     Extended tight-binding quantum chemistry methods
     WIRES Comput. Molec. Sci. 2020 11(2), e1493
     doi.org/10.1002/wcms.1493

List of suggested additional citations. These are papers that are important in the 'surrounding' of 
of this run, or papers that preceded the highly important papers. If you like your results we are grateful for a citation.

  1. Neese, F.
     The ORCA program system
     WIRES Comput. Molec. Sci. 2012 2(1), 73-78
     doi.org/10.1002/wcms.81
  2. Neese, F.
     Software update: the ORCA program system, version 4.0
     WIRES Comput. Molec. Sci. 2018 8(1), 1-6
     doi.org/10.1002/wcms.1327
  3. Neese, F.; Wennmohs, F.; Becker, U.; Riplinger, C.
     The ORCA quantum chemistry program package
     J. Chem. Phys. 2020 152(22), 224108
     doi.org/10.1063/5.0004608
  4. Neese, F.
     Software update: The ORCA program system—Version 5.0
     WIRES Comput. Molec. Sci. 2022 12(1), e1606
     doi.org/10.1002/wcms.1606

List of optional additional citations

  1. Neese, F.
     Approximate second-order SCF convergence for spin unrestricted wavefunctions
     Chem. Phys. Lett. 2000 325(1-3), 93-98
     doi.org/10.1016/s0009-2614(00)00662-x

Timings for individual modules:

Sum of individual times          ...        8.890 sec (=   0.148 min)
Geometry relaxation              ...        1.702 sec (=   0.028 min)  19.2 %
XTB module                       ...        7.187 sec (=   0.120 min)  80.8 %
                             ****ORCA TERMINATED NORMALLY****
TOTAL RUN TIME: 0 days 0 hours 0 minutes 9 seconds 542 msec
