
                                 *****************
                                 * O   R   C   A *
                                 *****************

                                            #,                                       
                                            ###                                      
                                            ####                                     
                                            #####                                    
                                            ######                                   
                                           ########,                                 
                                     ,,################,,,,,                         
                               ,,#################################,,                 
                          ,,##########################################,,             
                       ,#########################################, ''#####,          
                    ,#############################################,,   '####,        
                  ,##################################################,,,,####,       
                ,###########''''           ''''###############################       
              ,#####''   ,,,,##########,,,,          '''####'''          '####       
            ,##' ,,,,###########################,,,                        '##       
           ' ,,###''''                  '''############,,,                           
         ,,##''                                '''############,,,,        ,,,,,,###''
      ,#''                                            '''#######################'''  
     '                                                          ''''####''''         
             ,#######,   #######,   ,#######,      ##                                
            ,#'     '#,  ##    ##  ,#'     '#,    #''#        ,####,    ,#,          
            ##       ##  ##   ,#'  ##            #'  '#       #'       ,# #          
            ##       ##  #######   ##           ,######,      #####,      #          
            '#,     ,#'  ##    ##  '#,     ,#' ,#      #,     #,   #      #          
             '#######'   ##     ##  '#######'  #'      '#     '####' #    #          



                #########################################################
                #                        -***-                          #
                #          Department of theory and spectroscopy        #
                #                                                       #
                #                      Frank Neese                      #
                #                                                       #
                #     Directorship, Architecture, Infrastructure        #
                #                    SHARK, DRIVERS                     #
                #        Core code/Algorithms in most modules           #
                #                                                       #
                #        Max Planck Institute fuer Kohlenforschung      #
                #                Kaiser Wilhelm Platz 1                 #
                #                 D-45470 Muelheim/Ruhr                 #
                #                      Germany                          #
                #                                                       #
                #                  All rights reserved                  #
                #                        -***-                          #
                #########################################################


                         Program Version 6.1.0  -  RELEASE   -
                                (GIT: $679e74b$)
                          ($2025-06-10 18:02:51 +0200$)


 With contributions from (in alphabetic order):
[Max-Planck-Institut fuer Kohlenforschung]                               
  Daniel Aravena         : Magnetic Suceptibility                        
  Michael Atanasov       : Ab Initio Ligand Field Theory (pilot matlab implementation)
  Alexander A. Auer      : GIAO ZORA, VPT2 properties, NMR spectrum      
  Ute Becker             : All parallelization in ORCA, NUMFREQ, NUMCALC 
  Giovanni Bistoni       : ED, misc. LED, open-shell LED, HFLD           
  Dmytro Bykov           : pre 5.0 version of the SCF Hessian            
  Marcos Casanova-Páez   : Triplet and SCS-CIS(D). UHF-(DLPNO)-IP/EA/STEOM-CCSD. UHF-CVS-IP/STEOM-CCSD   
  Vijay G. Chilkuri      : MRCI spin determinant printing, contributions to CSF-ICE 
  Pauline Colinet        : FMM embedding                                 
  Dipayan Datta          : RHF DLPNO-CCSD density                        
  Achintya Kumar Dutta   : EOM-CC, STEOM-CC                              
  Nicolas Foglia         : Exact transition moments, OPA infrastructure, MCD improvements    
  Dmitry Ganyushin       : Spin-Orbit,Spin-Spin,Magnetic field MRCI      
  Miquel Garcia-Rates    : C-PCM and meta-GGA Hessian, CCSD/C-PCM, Gaussian charge scheme 
  Tiago L. C. Gouveia    : GS-ROHF, GS-ROCIS                             
  Yang Guo               : DLPNO-NEVPT2, F12-NEVPT2, CIM, IAO-localization        
  Andreas Hansen         : Spin unrestricted coupled pair/coupled cluster methods 
  Ingolf Harden          : AUTO-CI MPn and infrastructure                
  Benjamin Helmich-Paris : MC-RPA, TRAH-(SCF,CASSCF), AVAS, COSX integrals, SCF dyn. polar., MC-PDFT, srDFT 
  Lee Huntington         : MR-EOM, pCC                                   
  Robert Izsak           : Overlap fitted RIJCOSX, COSX-SCS-MP3, EOM     
  Riya Kayal             : Wick's Theorem for AUTO-CI, AUTO-CI UHF-CCSDT 
  Emily Kempfer          : AUTO-CI RHF CISDT and CCSDT, approximate NEVPT4
  Christian Kollmar      : KDIIS, OOCD, Brueckner-CCSD(T), CCSD density, CASPT2, CASPT2-K, improved NEVPT2 
  Axel Koslowski         : Symmetry handling                             
  Simone Kossmann        : meta-GGA functionals, TD-DFT gradient, OOMP2, (MP2 Hessian; deprecated post 5.0) 
  Lucas Lang             : DCDCAS, Hyperfine gauge corrections, ICE-SOC+SSC
  Marvin Lechner         : AUTO-CI (C++ implementation), FIC-MRCC        
  Spencer Leger          : CASSCF response                               
  Dagmar Lenk            : GEPOL surface, SMD, ORCA-2-JSON               
  Dimitrios Liakos       : Extrapolation schemes; Compound Job, Property file
  Dimitrios Manganas     : Further ROCIS development; embedding schemes. LFT, Crystal Embedding 
  Dimitrios Pantazis     : SARC Basis sets                               
  Anastasios Papadopoulos: AUTO-CI, single reference methods and gradients 
  Taras Petrenko         : pre 6.0 DFT Hessian and TD-DFT gradient,  ECA, NRVS 
  Petra Pikulova         : Analytic Raman intensities                    
  Peter Pinski           : DLPNO-MP2, DLPNO-MP2 Gradient                 
  Shashank Vittal Rao    : ES-AILFT, MagRelax                            
  Christoph Reimann      : Effective Core Potentials                     
  Marius Retegan         : Local ZFS, SOC                                
  Christoph Riplinger    : Optimizer, TS searches, QM/MM, DLPNO-CCSD(T), (RO)-DLPNO pert. Triples 
  Michael Roemelt        : Original ROCIS implementation, recursive CI coupling coefficients
  Masaaki Saitow         : Open-shell DLPNO-CCSD energy and density      
  Barbara Sandhoefer     : DKH picture change effects                    
  Yorick L. A. Schmerwitz: GMF and freeze-and-release deltaSCF, NEB S-IDPP initial path                    
  Kantharuban Sivalingam : CASSCF convergence/infrastructure, NEVPT2, NEVPT3, NEVPT4(SD), FIC-MRCI and CEPA variants
  Bernardo de Souza      : ESD, SOC TD-DFT                               
  Georgi L. Stoychev     : AutoAux, RI-MP2 NMR, DLPNO-MP2 response, X2C  
  Van Anh Tran           : RI-MP2 g-tensors                              
  Willem Van den Heuvel  : Paramagnetic NMR                              
  Zikuan Wang            : NOTCH, Electric field optimization            
  Frank Wennmohs         : Technical directorship and infrastructure     
  Hang Xu                : AUTO-CI-Response properties                   
                                                                         
[FACCTs GmbH]                                                            
  Markus Bursch, Nicolas Foglia, Miquel Garcia-Rates, Ingolf Harden, Hagen Neugebauer, Anastasios Papadopoulos, 
  Christoph Riplinger, Bernardo de Souza, Georgi L. Stoychev                                                    
                                                                 
  APM, various basis sets, CI-OPT, improved COSX, DLPNO-Multilevel,           
  DOCKER, DRACO, updates on ESD, Fragmentator, GOAT, IRC, LR-CPCM, L-BFGS, MBIS, meta-GGA TD-DFT gradient, ML-optimized integration grids, 
  MM, NACMEs, nearIR, NEB, NEB-TS, NL-DFT gradient (VV10), 2- and 3-layer-ONIOM, interface openCOSMO-RS, QMMM,   
  Crystal-QMMM, RESP, rigid body optimization, SF, symmetry and pop. for TD-DFT, various functionals, SOLVATOR                                   
                                                                         
[Other institutions]                                                     
  V. Asgeirsson          : NEB                                           
  Christoph Bannwarth    : sTDA-DFT, sTD-DFT, PBEh-3c, B97-3c, D3        
  Giovanni Bistoni       : ETS/NOCV, ADLD/ADEX, COVALED                  
  Martin Brehm           : Molecular dynamics                            
  Ronald Cardenas        : ETS/NOCV                                      
  Martina Colucci        : COVALED                                       
  Sebastian Ehlert       : rSCAN, r2SCAN, r2SCAN-3c, D4, dhf basis sets  
  Marvin Friede          : D4 for Fr, Ra, Ac-Lr                          
  Lars Goerigk           : TD-DFT with DH, B97 family of functionals     
  Stefan Grimme          : VdW corrections, initial TS optimization, DFT functionals, gCP, sTDA/sTD-DF 
  Waldemar Hujo          : DFT-NL                                        
  H. Jonsson             : NEB                                           
  Holger Kruse           : gCP                                           
  Marcel Mueller         : wB97X-3c, vDZP basis set                      
  Hagen Neugebauer       : wr2SCAN, Native XTB                           
  Gianluca Regni         : ADLD/ADEX                                     
  Tobias Risthaus        : pre 6.0 range-separated hybrid DFT and stability analysis
  Lukas Wittmann         : regularized MP2, r2SCAN double-hybrids, wr2SCAN        
                                                                         
We gratefully acknowledge several colleagues who have allowed us to      
interface, adapt or use parts of their codes:                            
  Ed Valeev, F. Pavosevic, A. Kumar             : LibInt (2-el integral package), F12 methods 
  Garnet Chan, S. Sharma, J. Yang, R. Olivares  : DMRG                   
  Ulf Ekstrom                                   : XCFun DFT Library      
  Mihaly Kallay                                 : mrcc  (arbitrary order and MRCC methods)
  Frank Weinhold                                : gennbo (NPA and NBO analysis)           
  Simon Mueller                                 : openCOSMO-RS                            
  Christopher J. Cramer and Donald G. Truhlar   : smd solvation model                     
  S Lehtola, MJT Oliveira, MAL Marques          : LibXC Library                           
  Liviu Ungur et al                             : ANISO software                          


 Your calculation uses the libint2 library for the computation of 2-el integrals
 For citations please refer to: http://libint.valeyev.net

 Your ORCA version has been built with support for libXC version: 7.0.0
 For citations please refer to: https://libxc.gitlab.io

 This ORCA versions uses:
   CBLAS   interface :  Fast vector & matrix operations
   LAPACKE interface :  Fast linear algebra routines
   SCALAPACK package :  Parallel linear algebra routines
   Shared memory     :  Shared parallel matrices
   BLAS/LAPACK       :  OpenBLAS 0.3.29  USE64BITINT DYNAMIC_ARCH NO_AFFINITY Haswell SINGLE_THREADED
        Core in use  :  Haswell
   Copyright (c) 2011-2014, The OpenBLAS Project


  ***********************************
  * Starting time: Thu Oct 30 12:23:07 2025
  * Host name:     corine-kengne-Latitude-5491
  * Process ID:    4633
  * Working dir.:  /home/corine-kengne/Documents/Travaux M2/OPT_GFN2-xTB/Iodo-Bodipy
  ***********************************

Your calculation utilizes the semiempirical GFN2-xTB method
Please cite in your paper:
Bannwarth, C.; Ehlert S.; Grimme, S. J. Chem. Theory Comput. 2019, 15, 1652.
   

================================================================================

cite the ECPs for I  [Def2-ECP] as follows:
Ce-Yb(ecp-28): M. Dolg, H. Stoll, H.Preuss, J. Chem. Phys., 1989, 90, 1730-1734.
Y-Cd(ecp-28), Hf-Hg(ecp-46): D. Andrae,U. Haeussermann, M. Dolg, H. Stoll, H. Preuss, Theor. Chim. Acta, 1990, 77, 123-141.
In-Sb(ecp-28), Tl-Bi(ecp-46): B. Metz, H. Stoll, M. Dolg, J. Chem. Phys., 2000, 113, 2563-2569.
Te-Xe(ecp-28), Po-Rn(ecp-46): K. A. Peterson, D. Figgen, E. Goll, H. Stoll, M. Dolg, J. Chem. Phys., 2003, 119, 11113-11123.
Rb(ecp-28), Cs(ecp-46): T. Leininger, A. Nicklass, W. Kuechle, H. Stoll, M. Dolg, A. Bergner, Chem. Phys. Lett., 1996, 255, 274-280.
Sr(ecp-28), Ba(ecp-46): M. Kaupp, P. V. Schleyer, H. Stoll and H. Preuss, J. Chem. Phys., 1991, 94, 1360-1366.
La(ecp-46): M. Dolg, H. Stoll, A. Savin, H. Preuss, Theor. Chim. Acta, 1989, 75, 173-194.
Lu(ecp-28): X. Cao, M. Dolg, J. Chem. Phys., 2001, 115, 7348-7355.

ECP parameters for I  [Def2-ECP] have been obtained from:
TURBOMOLE (7.0.2)

================================================================================
                                        WARNINGS
                       Please study these warnings very carefully!
================================================================================


WARNING: Geometry Optimization
  ===> : Switching off AutoStart
         For restart on a previous wavefunction, please use MOREAD

WARNING: Found dipole moment calculation with XTB calculation
  ===> : Switching off dipole moment calculation


================================================================================
                                       INPUT FILE
================================================================================
NAME = Iodo_Opt.inp
|  1> # ----------------------------------------------------
|  2> # OPTIMISATION DU PROTOTYPE 1 : BODIPY de base
|  3> # ----------------------------------------------------
|  4> ! OPT GFN2-xTB
|  5> 
|  6> # Définition des coordonnées du BODIPY de base
|  7> 
|  8> *xyz 0 1 Bod_xtb_opt.xyz
|  9> 
| 10>    C          -4.76656377204189      2.80000214614129     -0.14951372113028
| 11>   C          -2.24493960568262      3.02565474163532     -0.37504058158691
| 12>   C           0.29527285223500      2.86654670799072     -0.03280594156606
| 13>   C          -5.56196275119743      1.70618313498673      0.11801419625387
| 14>   C           1.06972268530737      1.76214443297082      0.25509526324264
| 15>   C           0.22620118401038      0.64002507879534      0.26069667691470
| 16>   C          -4.72251772587499      0.59377329615881      0.25374707367402
| 17>   N          -3.46382261074421      0.96901348108627      0.08220067236209
| 18>   C          -1.02724495093670      2.39122510087360     -0.16763140292098
| 19>   F          -2.23431120460124     -1.10377262819632      0.20320775640225
| 20>   F          -2.25462903836712      0.05508003045043     -1.74406575800676
| 21>   B          -2.23370609324827      0.13659800776206     -0.35753833816371
| 22>   I          -7.62912093440281      1.66029797684312      0.37220645384577
| 23>   I           3.11888475823806      1.69580202009106      0.61808260221518
| 24>   C          -3.44168806451002      2.32341488694095     -0.21118203822654
| 25>   N          -1.02207539463756      1.01925205876230      0.02125835659898
| 26>   H          -5.07850920066194      3.81526547759333     -0.29744838461560
| 27>   H          -2.27155049267979      4.08799306754605     -0.56083912006256
| 28>   H           0.59158173696204      3.89041892850129     -0.12343197016184
| 29>   H           0.48635371342254     -0.38723777732940      0.43033878360157
| 30>   H          -4.96830909058878     -0.43311816960376      0.44943342133017
| 31> *
| 32> 
| 33>                          ****END OF INPUT****
================================================================================

                       *****************************
                       * Geometry Optimization Run *
                       *****************************

Geometry optimization settings:
Update method            Update   .... BFGS
Choice of coordinates    CoordSys .... (2022) Redundant Internals
Initial Hessian          InHess   .... Almloef's Model
Max. no of cycles        MaxIter  .... 63

Convergence Tolerances:
Energy Change            TolE     ....  5.0000e-06 Eh
Max. Gradient            TolMAXG  ....  3.0000e-04 Eh/bohr
RMS Gradient             TolRMSG  ....  1.0000e-04 Eh/bohr
Max. Displacement        TolMAXD  ....  4.0000e-03 bohr
RMS Displacement         TolRMSD  ....  2.0000e-03 bohr
Strict Convergence                .... False

------------------------------------------------------------------------------
                        ORCA OPTIMIZATION COORDINATE SETUP
------------------------------------------------------------------------------

The optimization will be done in redundant internal coordinates (2022)
Making redundant internal coordinates   ...  (2022 redundants) done
Evaluating the initial hessian          ...  (Almloef) done
Evaluating the coordinates              ...  done
Calculating the B-matrix                .... done
Calculating the G-matrix                .... done
The number of degrees of freedom        ....  120

    -----------------------------------------------------------------
                    Redundant Internal Coordinates


    -----------------------------------------------------------------
         Definition                    Initial Value    Approx d2E/dq
    -----------------------------------------------------------------
      1. B(C   3,C   0)                  1.3786         0.651403   
      2. B(C   4,C   2)                  1.3793         0.649935   
      3. B(C   5,C   4)                  1.4038         0.593867   
      4. B(C   6,C   3)                  1.4002         0.601828   
      5. B(N   7,C   6)                  1.3246         0.711587   
      6. B(C   8,C   2)                  1.4118         0.576724   
      7. B(C   8,C   1)                  1.3886         0.627943   
      8. B(B  11,F  10)                  1.3891         0.604301   
      9. B(B  11,F   9)                  1.3612         0.669391   
     10. B(B  11,N   7)                  1.5490         0.361395   
     11. B(I  12,C   3)                  2.0832         0.164521   
     12. B(I  13,C   4)                  2.0821         0.165195   
     13. B(C  14,N   7)                  1.3860         0.567903   
     14. B(C  14,C   1)                  1.3972         0.608464   
     15. B(C  14,C   0)                  1.4093         0.581950   
     16. B(N  15,B  11)                  1.5462         0.365214   
     17. B(N  15,C   8)                  1.3849         0.570129   
     18. B(N  15,C   5)                  1.3264         0.706878   
     19. B(H  16,C   0)                  1.0724         0.384209   
     20. B(H  17,C   1)                  1.0788         0.375236   
     21. B(H  18,C   2)                  1.0697         0.387936   
     22. B(H  19,C   5)                  1.0732         0.383045   
     23. B(H  20,C   6)                  1.0739         0.382072   
     24. A(C  14,C   0,H  16)          125.9858         0.352997   
     25. A(C   3,C   0,H  16)          127.5965         0.359820   
     26. A(C   3,C   0,C  14)          106.4129         0.432980   
     27. A(C   8,C   1,C  14)          120.2616         0.433594   
     28. A(C   8,C   1,H  17)          119.8189         0.356149   
     29. A(C  14,C   1,H  17)          119.6042         0.354250   
     30. A(C   8,C   2,H  18)          125.0039         0.353034   
     31. A(C   4,C   2,H  18)          128.9429         0.360274   
     32. A(C   4,C   2,C   8)          106.0417         0.432103   
     33. A(C   0,C   3,C   6)          107.6531         0.435605   
     34. A(C   0,C   3,I  12)          127.8533         0.369392   
     35. A(C   6,C   3,I  12)          124.4416         0.364413   
     36. A(C   2,C   4,C   5)          107.6670         0.434385   
     37. A(C   5,C   4,I  13)          124.4161         0.363838   
     38. A(C   2,C   4,I  13)          127.9164         0.369508   
     39. A(C   4,C   5,N  15)          109.6473         0.438117   
     40. A(C   4,C   5,H  19)          128.3234         0.354029   
     41. A(N  15,C   5,H  19)          122.0285         0.362419   
     42. A(N   7,C   6,H  20)          120.7963         0.362672   
     43. A(C   3,C   6,N   7)          109.3949         0.439698   
     44. A(C   3,C   6,H  20)          129.8032         0.354676   
     45. A(C   6,N   7,B  11)          129.7284         0.402315   
     46. A(B  11,N   7,C  14)          116.8952         0.386722   
     47. A(C   6,N   7,C  14)          108.6279         0.432274   
     48. A(C   2,C   8,N  15)          108.4821         0.419338   
     49. A(C   1,C   8,N  15)          118.4405         0.425761   
     50. A(C   1,C   8,C   2)          132.9919         0.429440   
     51. A(N   7,B  11,F   9)          111.8620         0.399723   
     52. A(F  10,B  11,N  15)          106.8488         0.393334   
     53. A(F   9,B  11,N  15)          114.8098         0.400463   
     54. A(N   7,B  11,N  15)          104.2400         0.361386   
     55. A(F   9,B  11,F  10)          110.9591         0.436167   
     56. A(N   7,B  11,F  10)          107.6340         0.392611   
     57. A(C   1,C  14,N   7)          121.9818         0.423072   
     58. A(C   0,C  14,N   7)          107.8293         0.419720   
     59. A(C   0,C  14,C   1)          129.8190         0.427712   
     60. A(C   8,N  15,B  11)          121.9507         0.387696   
     61. A(C   5,N  15,B  11)          128.2061         0.402590   
     62. A(C   5,N  15,C   8)          108.1416         0.432062   
     63. D(C   6,C   3,C   0,H  16)   -179.1068         0.029553   
     64. D(I  12,C   3,C   0,C  14)    179.1083         0.029553   
     65. D(I  12,C   3,C   0,H  16)     -1.6597         0.029553   
     66. D(C   6,C   3,C   0,C  14)      1.6611         0.029553   
     67. D(C   5,C   4,C   2,C   8)      1.3462         0.029411   
     68. D(I  13,C   4,C   2,C   8)   -178.8831         0.029411   
     69. D(I  13,C   4,C   2,H  18)     -0.0805         0.029411   
     70. D(C   5,C   4,C   2,H  18)   -179.8513         0.029411   
     71. D(N  15,C   5,C   4,C   2)     -1.4458         0.024286   
     72. D(H  19,C   5,C   4,C   2)    178.8600         0.024286   
     73. D(H  19,C   5,C   4,I  13)     -0.9208         0.024286   
     74. D(N  15,C   5,C   4,I  13)    178.7734         0.024286   
     75. D(H  20,C   6,C   3,C   0)   -179.0444         0.024977   
     76. D(N   7,C   6,C   3,I  12)   -177.4763         0.024977   
     77. D(N   7,C   6,C   3,C   0)      0.0796         0.024977   
     78. D(H  20,C   6,C   3,I  12)      3.3997         0.024977   
     79. D(C  14,N   7,C   6,C   3)     -1.8375         0.042042   
     80. D(C  14,N   7,C   6,H  20)    177.3791         0.042042   
     81. D(B  11,N   7,C   6,H  20)     23.1120         0.042042   
     82. D(B  11,N   7,C   6,C   3)   -156.1046         0.042042   
     83. D(N  15,C   8,C   2,H  18)   -179.6831         0.022840   
     84. D(C   1,C   8,C   2,H  18)     -3.2071         0.022840   
     85. D(C   1,C   8,C   2,C   4)    175.6559         0.022840   
     86. D(N  15,C   8,C   1,H  17)   -177.7477         0.027328   
     87. D(N  15,C   8,C   2,C   4)     -0.8201         0.022840   
     88. D(N  15,C   8,C   1,C  14)      8.7251         0.027328   
     89. D(C   2,C   8,C   1,H  17)      6.0536         0.027328   
     90. D(C   2,C   8,C   1,C  14)   -167.4736         0.027328   
     91. D(F  10,B  11,N   7,C   6)     82.5301         0.010000   
     92. D(F   9,B  11,N   7,C  14)    167.8650         0.010000   
     93. D(N  15,B  11,N   7,C   6)   -164.2384         0.010000   
     94. D(F  10,B  11,N   7,C  14)    -69.9969         0.010000   
     95. D(F   9,B  11,N   7,C   6)    -39.6080         0.010000   
     96. D(C   1,C  14,N   7,B  11)    -25.4636         0.025799   
     97. D(C   1,C  14,N   7,C   6)    176.5247         0.025799   
     98. D(C   0,C  14,N   7,C   6)      2.8691         0.025799   
     99. D(N   7,C  14,C   1,H  17)   -177.3793         0.025562   
    100. D(N   7,C  14,C   1,C   8)     -3.8382         0.025562   
    101. D(C   0,C  14,C   1,H  17)     -5.2515         0.025562   
    102. D(C   0,C  14,C   1,C   8)    168.2896         0.025562   
    103. D(N   7,C  14,C   0,H  16)    177.9914         0.023275   
    104. D(C   0,C  14,N   7,B  11)    160.8809         0.025799   
    105. D(N   7,C  14,C   0,C   3)     -2.7606         0.023275   
    106. D(C   1,C  14,C   0,H  16)      5.0010         0.023275   
    107. D(C   1,C  14,C   0,C   3)   -175.7510         0.023275   
    108. D(C   8,N  15,B  11,F   9)   -163.0720         0.010000   
    109. D(C   8,N  15,B  11,N   7)    -40.3506         0.010000   
    110. D(C   5,N  15,B  11,F  10)    -89.8716         0.010000   
    111. D(C   5,N  15,B  11,N   7)    156.3367         0.010000   
    112. D(B  11,N  15,C   8,C   2)   -166.3234         0.026014   
    113. D(B  11,N  15,C   8,C   1)     16.6074         0.026014   
    114. D(C   5,N  15,C   8,C   2)     -0.0590         0.026014   
    115. D(C   5,N  15,C   8,C   1)   -177.1282         0.026014   
    116. D(C   5,N  15,B  11,F   9)     33.6153         0.010000   
    117. D(B  11,N  15,C   5,H  19)    -14.2221         0.041431   
    118. D(B  11,N  15,C   5,C   4)    166.0609         0.041431   
    119. D(C   8,N  15,C   5,H  19)   -179.3661         0.041431   
    120. D(C   8,N  15,C   5,C   4)      0.9170         0.041431   
    -----------------------------------------------------------------

Number of atoms                         .... 21
Number of degrees of freedom            .... 120


         *************************************************************
         *                GEOMETRY OPTIMIZATION CYCLE   1            *
         *************************************************************
---------------------------------
CARTESIAN COORDINATES (ANGSTROEM)
---------------------------------
  C    -4.766564    2.800002   -0.149514
  C    -2.244940    3.025655   -0.375041
  C     0.295273    2.866547   -0.032806
  C    -5.561963    1.706183    0.118014
  C     1.069723    1.762144    0.255095
  C     0.226201    0.640025    0.260697
  C    -4.722518    0.593773    0.253747
  N    -3.463823    0.969013    0.082201
  C    -1.027245    2.391225   -0.167631
  F    -2.234311   -1.103773    0.203208
  F    -2.254629    0.055080   -1.744066
  B    -2.233706    0.136598   -0.357538
  I    -7.629121    1.660298    0.372206
  I     3.118885    1.695802    0.618083
  C    -3.441688    2.323415   -0.211182
  N    -1.022075    1.019252    0.021258
  H    -5.078509    3.815265   -0.297448
  H    -2.271550    4.087993   -0.560839
  H     0.591582    3.890419   -0.123432
  H     0.486354   -0.387238    0.430339
  H    -4.968309   -0.433118    0.449433

----------------------------
CARTESIAN COORDINATES (A.U.)
----------------------------
  NO LB    ZA    FRAG    MASS        X           Y           Z
   0 C   6.0000    0    12.011   -9.007500    5.291237   -0.282540
   1 C   6.0000    0    12.011   -4.242321    5.717659   -0.708724
   2 C   6.0000    0    12.011    0.557985    5.416988   -0.061994
   3 C   6.0000    0    12.011  -10.510586    3.224219    0.223015
   4 C   6.0000    0    12.011    2.021483    3.329970    0.482060
   5 C   6.0000    0    12.011    0.427458    1.209472    0.492645
   6 C   6.0000    0    12.011   -8.924265    1.122069    0.479512
   7 N   7.0000    0    14.007   -6.545676    1.831170    0.155337
   8 C   6.0000    0    12.011   -1.941212    4.518761   -0.316777
   9 F   9.0000    0    18.998   -4.222236   -2.085828    0.384007
  10 F   9.0000    0    18.998   -4.260631    0.104086   -3.295807
  11 B   5.0000    0    10.810   -4.221093    0.258133   -0.675650
  12 I  53.0000    0   126.900  -14.416949    3.137508    0.703368
  13 I  53.0000    0   126.900    5.893838    3.204601    1.168007
  14 C   6.0000    0    12.011   -6.503848    4.390618   -0.399076
  15 N   7.0000    0    14.007   -1.931443    1.926107    0.040172
  16 H   1.0000    0     1.008   -9.596992    7.209807   -0.562096
  17 H   1.0000    0     1.008   -4.292608    7.725187   -1.059832
  18 H   1.0000    0     1.008    1.117927    7.351826   -0.233253
  19 H   1.0000    0     1.008    0.919075   -0.731773    0.813222
  20 H   1.0000    0     1.008   -9.388744   -0.818475    0.849306

      -----------------------------------------------------------      
     |                   =====================                   |     
     |                           x T B                           |     
     |                   =====================                   |     
     |                         S. Grimme                         |     
     |          Mulliken Center for Theoretical Chemistry        |     
     |                    University of Bonn                     |     
      -----------------------------------------------------------      

   * xtb version 6.7.1 (edcfbbe) compiled by 'albert@albert-system' on 2024-07-22

   xtb is free software: you can redistribute it and/or modify it under
   the terms of the GNU Lesser General Public License as published by
   the Free Software Foundation, either version 3 of the License, or
   (at your option) any later version.
   
   xtb is distributed in the hope that it will be useful,
   but WITHOUT ANY WARRANTY; without even the implied warranty of
   MERCHANTABILITY or FITNESS FOR A PARTICULAR PURPOSE.  See the
   GNU Lesser General Public License for more details.
   
   Cite this work as:
   * C. Bannwarth, E. Caldeweyher, S. Ehlert, A. Hansen, P. Pracht,
     J. Seibert, S. Spicher, S. Grimme, WIREs Comput. Mol. Sci., 2020, 11,
     e01493. DOI: 10.1002/wcms.1493
   
   for GFN2-xTB:
   * C. Bannwarth, S. Ehlert and S. Grimme., J. Chem. Theory Comput., 2019,
     15, 1652-1671. DOI: 10.1021/acs.jctc.8b01176
   for GFN1-xTB:
   * S. Grimme, C. Bannwarth, P. Shushkov, J. Chem. Theory Comput., 2017,
     13, 1989-2009. DOI: 10.1021/acs.jctc.7b00118
   for GFN0-xTB:
   * P. Pracht, E. Caldeweyher, S. Ehlert, S. Grimme, ChemRxiv, 2019, preprint.
     DOI: 10.26434/chemrxiv.8326202.v1
   for GFN-FF:
   * S. Spicher and S. Grimme, Angew. Chem. Int. Ed., 2020, 59, 15665-15673.
     DOI: 10.1002/anie.202004239
   
   for ALPB and GBSA implicit solvation:
   * S. Ehlert, M. Stahn, S. Spicher, S. Grimme, J. Chem. Theory Comput.,
     2021, 17, 4250-4261. DOI: 10.1021/acs.jctc.1c00471
   
   for ddCOSMO and CPCM-X implicit solvation:
   * M. Stahn, S. Ehlert, S. Grimme, J. Phys. Chem. A,
     2023, XX, XXXX-XXXX. DOI: 10.1021/acs.jpca.3c04382
   
   for DFT-D4:
   * E. Caldeweyher, C. Bannwarth and S. Grimme, J. Chem. Phys., 2017,
     147, 034112. DOI: 10.1063/1.4993215
   * E. Caldeweyher, S. Ehlert, A. Hansen, H. Neugebauer, S. Spicher,
     C. Bannwarth and S. Grimme, J. Chem. Phys., 2019, 150, 154122.
     DOI: 10.1063/1.5090222
   * E. Caldeweyher, J.-M. Mewes, S. Ehlert and S. Grimme, Phys. Chem. Chem. Phys.
     2020, 22, 8499-8512. DOI: 10.1039/D0CP00502A
   
   for sTDA-xTB:
   * S. Grimme and C. Bannwarth, J. Chem. Phys., 2016, 145, 054103.
     DOI: 10.1063/1.4959605
   
   in the mass-spec context:
   * V. Asgeirsson, C. Bauer and S. Grimme, Chem. Sci., 2017, 8, 4879.
     DOI: 10.1039/c7sc00601b
   * J. Koopman and S. Grimme, ACS Omega 2019, 4, 12, 15120-15133.
     DOI: 10.1021/acsomega.9b02011
   
   for metadynamics refer to:
   * S. Grimme, J. Chem. Theory Comput., 2019, 155, 2847-2862
     DOI: 10.1021/acs.jctc.9b00143
   
   for SPH calculations refer to:
   * S. Spicher and S. Grimme, J. Chem. Theory Comput., 2021, 17, 1701-1714
     DOI: 10.1021/acs.jctc.0c01306
   
   for ONIOM refer to:
   * C. Plett, A. Katbashev, S. Ehlert, S. Grimme, M. Bursch,
     Phys. Chem. Chem. Phys., 2023, 25, 17860-17868. DOI: 10.1039/D3CP02178E
   
   for DIPRO refer to:
   * J. Kohn, N. Gildemeister, S. Grimme, D. Fazzi, A. Hansen,
     J. Chem. Phys., 2023, just accepted.
   
   for PTB refer to:
   * S. Grimme, M. Mueller, A. Hansen, J. Chem. Phys., 2023, 158, 124111.
     DOI: 10.1063/5.0137838
   
   with help from (in alphabetical order)
   P. Atkinson, C. Bannwarth, F. Bohle, G. Brandenburg, E. Caldeweyher
   M. Checinski, S. Dohm, S. Ehlert, S. Ehrlich, I. Gerasimov, C. Hölzer
   A. Katbashev, J. Kohn, J. Koopman, C. Lavigne, S. Lehtola, F. März, M. Müller,
   F. Musil, H. Neugebauer, J. Pisarek, C. Plett, P. Pracht, F. Pultar,
   J. Seibert, P. Shushkov, S. Spicher, M. Stahn, M. Steiner, T. Strunk,
   J. Stückrath, T. Rose, and J. Unsleber
   
 * started run on 2025/10/30 at 12:23:08.167     
   ID    Z sym.   atoms
    1    6 C      1-7, 9, 15
    2    7 N      8, 16
    3    9 F      10, 11
    4    5 B      12
    5   53 I      13, 14
    6    1 H      17-21

           -------------------------------------------------
          |                Calculation Setup                |
           -------------------------------------------------

          program call               : otool_xtb Iodo_Opt_XTB.xyz --grad -c 0 -u 0 -P 1 --namespace Iodo_Opt --input Iodo_Opt_XTB.input.tmp --acc 0.200000
          calculation namespace      : Iodo_Opt
          coordinate file            : Iodo_Opt_XTB.xyz
          omp threads                :                     1


           -------------------------------------------------
          |                 G F N 2 - x T B                 |
           -------------------------------------------------

        Reference                      10.1021/acs.jctc.8b01176
      * Hamiltonian:
        H0-scaling (s, p, d)           1.850000    2.230000    2.230000
        zeta-weighting                 0.500000
      * Dispersion:
        s8                             2.700000
        a1                             0.520000
        a2                             5.000000
        s9                             5.000000
      * Repulsion:
        kExp                           1.500000    1.000000
        rExp                           1.000000
      * Coulomb:
        alpha                          2.000000
        third order                    shell-resolved
        anisotropic                    true
        a3                             3.000000
        a5                             4.000000
        cn-shift                       1.200000
        cn-exp                         4.000000
        max-rad                        5.000000


          ...................................................
          :                      SETUP                      :
          :.................................................:
          :  # basis functions                  81          :
          :  # atomic orbitals                  79          :
          :  # shells                           39          :
          :  # electrons                        82          :
          :  max. iterations                   250          :
          :  Hamiltonian                  GFN2-xTB          :
          :  restarted?                      false          :
          :  GBSA solvation                  false          :
          :  PC potential                    false          :
          :  electronic temp.          300.0000000     K    :
          :  accuracy                    0.2000000          :
          :  -> integral cutoff          0.3198970E+02      :
          :  -> integral neglect         0.2000000E-08      :
          :  -> SCF convergence          0.2000000E-06 Eh   :
          :  -> wf. convergence          0.2000000E-04 e    :
          :  Broyden damping             0.4000000          :
          :  net charge                          0          :
          :  unpaired electrons                  0          :
          ...................................................

 iter      E             dE          RMSdq      gap      omega  full diag
   1    -46.4593028 -0.464593E+02  0.808E+00    1.76       0.0  T
   2    -46.6016526 -0.142350E+00  0.536E+00    1.39       1.0  T
   3    -46.5559767  0.456759E-01  0.202E+00    1.50       1.0  T
   4    -46.6255181 -0.695415E-01  0.102E+00    1.39       1.0  T
   5    -46.6327478 -0.722970E-02  0.493E-01    1.43       1.0  T
   6    -46.6313220  0.142585E-02  0.338E-01    1.35       1.0  T
   7    -46.6330726 -0.175061E-02  0.167E-01    1.41       1.0  T
   8    -46.6331655 -0.928930E-04  0.116E-01    1.42       1.0  T
   9    -46.6331409  0.245707E-04  0.823E-02    1.41       1.0  T
  10    -46.6332248 -0.838611E-04  0.300E-02    1.42       1.0  T
  11    -46.6332264 -0.159392E-05  0.115E-02    1.42       1.9  T
  12    -46.6332274 -0.101704E-05  0.308E-03    1.42       7.1  T
  13    -46.6332274 -0.340550E-07  0.178E-03    1.42      12.3  T
  14    -46.6332275 -0.206284E-07  0.762E-04    1.42      28.7  T
  15    -46.6332275 -0.989154E-09  0.353E-04    1.42      61.8  T
  16    -46.6332275 -0.973245E-09  0.179E-04    1.42     122.2  T
  17    -46.6332275 -0.238671E-09  0.846E-05    1.42     258.0  T

   *** convergence criteria satisfied after 17 iterations ***

         #    Occupation            Energy/Eh            Energy/eV
      -------------------------------------------------------------
         1        2.0000           -0.7925321             -21.5659
       ...           ...                  ...                  ...
        35        2.0000           -0.4640188             -12.6266
        36        2.0000           -0.4600881             -12.5196
        37        2.0000           -0.4382927             -11.9266
        38        2.0000           -0.4295426             -11.6884
        39        2.0000           -0.4277517             -11.6397
        40        2.0000           -0.4224242             -11.4947
        41        2.0000           -0.4124296             -11.2228 (HOMO)
        42                         -0.3603706              -9.8062 (LUMO)
        43                         -0.2504529              -6.8152
        44                         -0.2437322              -6.6323
        45                         -0.2394688              -6.5163
        46                         -0.2287315              -6.2241
       ...                                ...                  ...
        79                          0.6409942              17.4423
      -------------------------------------------------------------
                  HL-Gap            0.0520590 Eh            1.4166 eV
             Fermi-level           -0.3864001 Eh          -10.5145 eV

 SCC (total)                   0 d,  0 h,  0 min,  0.161 sec
 SCC setup                      ...        0 min,  0.007 sec (  4.139%)
 Dispersion                     ...        0 min,  0.001 sec (  0.825%)
 classical contributions        ...        0 min,  0.000 sec (  0.066%)
 integral evaluation            ...        0 min,  0.029 sec ( 18.065%)
 iterations                     ...        0 min,  0.082 sec ( 51.064%)
 molecular gradient             ...        0 min,  0.040 sec ( 24.859%)
 printout                       ...        0 min,  0.001 sec (  0.916%)

         :::::::::::::::::::::::::::::::::::::::::::::::::::::
         ::                     SUMMARY                     ::
         :::::::::::::::::::::::::::::::::::::::::::::::::::::
         :: total energy             -46.133078687452 Eh    ::
         :: gradient norm              0.025061140038 Eh/a0 ::
         :: HOMO-LUMO gap              1.416598550882 eV    ::
         ::.................................................::
         :: SCC energy               -46.633333988937 Eh    ::
         :: -> isotropic ES            0.085961450831 Eh    ::
         :: -> anisotropic ES         -0.004144927059 Eh    ::
         :: -> anisotropic XC          0.007755286479 Eh    ::
         :: -> dispersion             -0.026989160852 Eh    ::
         :: repulsion energy           0.500255301486 Eh    ::
         :: add. restraining           0.000000000000 Eh    ::
         :: total charge               0.000000000000 e     ::
         :::::::::::::::::::::::::::::::::::::::::::::::::::::


Property printout bound to 'properties.out'

           -------------------------------------------------
          | TOTAL ENERGY              -46.133078687452 Eh   |
          | GRADIENT NORM               0.025061140038 Eh/α |
          | HOMO-LUMO GAP               1.416598550882 eV   |
           -------------------------------------------------

------------------------------------------------------------------------
 * finished run on 2025/10/30 at 12:23:08.407     
------------------------------------------------------------------------
 total:
 * wall-time:     0 d,  0 h,  0 min,  0.239 sec
 *  cpu-time:     0 d,  0 h,  0 min,  0.172 sec
 * ratio c/w:     0.722 speedup
 SCF:
 * wall-time:     0 d,  0 h,  0 min,  0.162 sec
 *  cpu-time:     0 d,  0 h,  0 min,  0.131 sec
 * ratio c/w:     0.810 speedup


-------------------------   --------------------
FINAL SINGLE POINT ENERGY       -46.133078687450
-------------------------   --------------------


-------------
DIPOLE MOMENT
-------------
                                X             Y             Z
Total Dipole Moment    :      0.06200       1.69200       0.41600
                        -----------------------------------------
Magnitude (a.u.)       :      1.74349
Magnitude (Debye)      :      4.43160


------------------
CARTESIAN GRADIENT
------------------

   1   C   :    0.003767883   -0.002371724    0.003713526
   2   C   :    0.003520607    0.002467444   -0.006312636
   3   C   :    0.001703376    0.000742850    0.000078316
   4   C   :    0.000419483   -0.001258718   -0.003440671
   5   C   :    0.001978303   -0.001207475    0.001151185
   6   C   :    0.001031685    0.000298956   -0.000492874
   7   C   :   -0.002298415    0.002597948    0.001018714
   8   N   :   -0.000585445   -0.003066082    0.009978484
   9   C   :    0.006677010    0.004402890    0.002623027
  10   F   :   -0.003304419   -0.003807959   -0.001402422
  11   F   :    0.000714641    0.001017456   -0.003974592
  12   B   :    0.002650395    0.003579917    0.003062450
  13   I   :    0.000205372   -0.000543574    0.000155091
  14   I   :   -0.000349960   -0.000533279   -0.000012517
  15   C   :   -0.004518987   -0.005277856   -0.004513367
  16   N   :   -0.012180898    0.003633026   -0.002072573
  17   H   :    0.000333143    0.000236113    0.000194876
  18   H   :    0.000789156    0.000046333    0.000780631
  19   H   :   -0.002009395   -0.000880283   -0.000457696
  20   H   :    0.000380945    0.000482712    0.000268143
  21   H   :    0.001075522   -0.000558696   -0.000345095

Difference to translation invariance:
           :   -0.0000000000    0.0000000000   -0.0000000000

Difference to rotation invariance:
           :    0.0000000999   -0.0000000560    0.0000000049

Norm of the Cartesian gradient     ...    0.0250611400
RMS gradient                       ...    0.0031574069
MAX gradient                       ...    0.0121808976
------------------------------------------------------------------------------
                         ORCA GEOMETRY RELAXATION STEP
------------------------------------------------------------------------------

Reading the OPT-File                    .... done
Getting information on internals        .... done
Copying old internal coords+grads       .... done
Making the new internal coordinates     .... (2022 redundants) done
Validating the new internal coordinates .... (2022 redundants) done
Calculating the B-matrix                .... done
Calculating the G,G- and P matrices     .... done
Transforming gradient to internals      .... done
Projecting the internal gradient        .... done
Number of atoms                         ....  21
Number of internal coordinates          .... 120
Current Energy                          ....   -46.133078687 Eh
Current gradient norm                   ....     0.025061140 Eh/bohr
Maximum allowed component of the step   ....  0.300
Current trust radius                    ....  0.300
Evaluating the initial hessian          ....  (Almloef) done
Projecting the Hessian                  .... done
Forming the augmented Hessian           .... done
Diagonalizing the augmented Hessian     .... done
Last element of RFO vector              ....  0.962816835
Lowest eigenvalues of augmented Hessian:
 -0.002892888  0.019199031  0.021788201  0.025516486  0.025891566
Length of the computed step             ....  0.280588192
The final length of the internal step   ....  0.280588192
Converting the step to Cartesian space:
 Initial RMS(Int)=    0.0256140804
Transforming coordinates:
 Iter   0:  RMS(Cart)=    0.0588793993 RMS(Int)=    0.5731079758
 Iter   5:  RMS(Cart)=    0.0000000110 RMS(Int)=    0.0000000060
done
Storing new coordinates                 .... done

                                .--------------------.
          ----------------------|Geometry convergence|-------------------------
          Item                value                   Tolerance       Converged
          ---------------------------------------------------------------------
          RMS gradient        0.0017732302            0.0001000000      NO
          MAX gradient        0.0071187963            0.0003000000      NO
          RMS step            0.0256140804            0.0020000000      NO
          MAX step            0.0981685423            0.0040000000      NO
          -------------------------------------------------------------------------
          ........................................................
          Max(Bonds)      0.0076      Max(Angles)    1.52
          Max(Dihed)        5.62      Max(Improp)    0.00
          ---------------------------------------------------------------------

The optimization has not yet converged - more geometry cycles are needed


    ---------------------------------------------------------------------------
                         Redundant Internal Coordinates
                            (Angstroem and degrees)

        Definition                    Value    dE/dq     Step     New-Value
    ----------------------------------------------------------------------------
     1. B(C   3,C   0)                1.3786  0.000479 -0.0004    1.3783   
     2. B(C   4,C   2)                1.3793  0.001013 -0.0013    1.3779   
     3. B(C   5,C   4)                1.4038 -0.000234 -0.0003    1.4035   
     4. B(C   6,C   3)                1.4002 -0.002829  0.0023    1.4025   
     5. B(N   7,C   6)                1.3246 -0.001161  0.0007    1.3253   
     6. B(C   8,C   2)                1.4118  0.000044  0.0002    1.4120   
     7. B(C   8,C   1)                1.3886 -0.000721 -0.0003    1.3883   
     8. B(B  11,F  10)                1.3891  0.003897 -0.0034    1.3857   
     9. B(B  11,F   9)                1.3612  0.002894 -0.0023    1.3590   
    10. B(B  11,N   7)                1.5490 -0.003656  0.0069    1.5559   
    11. B(I  12,C   3)                2.0832 -0.000173  0.0005    2.0838   
    12. B(I  13,C   4)                2.0821 -0.000330  0.0010    2.0832   
    13. B(C  14,N   7)                1.3860 -0.000431 -0.0000    1.3860   
    14. B(C  14,C   1)                1.3972  0.007119 -0.0076    1.3896   
    15. B(C  14,C   0)                1.4093 -0.002817  0.0028    1.4121   
    16. B(N  15,B  11)                1.5462 -0.000735  0.0031    1.5492   
    17. B(N  15,C   8)                1.3849  0.000405  0.0008    1.3857   
    18. B(N  15,C   5)                1.3264  0.002408 -0.0016    1.3248   
    19. B(H  16,C   0)                1.0724  0.000100 -0.0001    1.0722   
    20. B(H  17,C   1)                1.0788 -0.000108  0.0002    1.0789   
    21. B(H  18,C   2)                1.0697 -0.001360  0.0018    1.0716   
    22. B(H  19,C   5)                1.0732 -0.000327  0.0004    1.0736   
    23. B(H  20,C   6)                1.0739  0.000225 -0.0003    1.0736   
    24. A(C  14,C   0,H  16)          125.99 -0.001143    0.15    126.13   
    25. A(C   3,C   0,H  16)          127.60 -0.000434    0.03    127.63   
    26. A(C   3,C   0,C  14)          106.41  0.001564   -0.15    106.26   
    27. A(C   8,C   1,C  14)          120.26 -0.001687    0.57    120.83   
    28. A(C   8,C   1,H  17)          119.82 -0.000069    0.03    119.85   
    29. A(C  14,C   1,H  17)          119.60  0.001595   -0.24    119.37   
    30. A(C   8,C   2,H  18)          125.00 -0.001666    0.23    125.23   
    31. A(C   4,C   2,H  18)          128.94  0.001913   -0.34    128.61   
    32. A(C   4,C   2,C   8)          106.04 -0.000241    0.11    106.15   
    33. A(C   0,C   3,C   6)          107.65 -0.000571    0.09    107.75   
    34. A(C   0,C   3,I  12)          127.85  0.001414   -0.20    127.66   
    35. A(C   6,C   3,I  12)          124.44 -0.000867    0.16    124.60   
    36. A(C   2,C   4,C   5)          107.67 -0.000962    0.11    107.78   
    37. A(C   5,C   4,I  13)          124.42 -0.000593    0.11    124.53   
    38. A(C   2,C   4,I  13)          127.92  0.001554   -0.22    127.70   
    39. A(C   4,C   5,N  15)          109.65  0.002083   -0.20    109.45   
    40. A(C   4,C   5,H  19)          128.32 -0.001574    0.19    128.51   
    41. A(N  15,C   5,H  19)          122.03 -0.000512    0.01    122.04   
    42. A(N   7,C   6,H  20)          120.80 -0.000862    0.16    120.96   
    43. A(C   3,C   6,N   7)          109.39 -0.000685    0.08    109.47   
    44. A(C   3,C   6,H  20)          129.80  0.001536   -0.22    129.58   
    45. A(C   6,N   7,B  11)          129.73  0.000477    0.02    129.75   
    46. A(B  11,N   7,C  14)          116.90 -0.003039    1.52    118.42   
    47. A(C   6,N   7,C  14)          108.63  0.001817   -0.14    108.49   
    48. A(C   2,C   8,N  15)          108.48  0.002007   -0.29    108.19   
    49. A(C   1,C   8,N  15)          118.44 -0.005052    1.03    119.47   
    50. A(C   1,C   8,C   2)          132.99  0.003079   -0.77    132.22   
    51. A(N   7,B  11,F   9)          111.86 -0.003202    0.08    111.94   
    52. A(F  10,B  11,N  15)          106.85 -0.001254    0.25    107.10   
    53. A(F   9,B  11,N  15)          114.81  0.004419   -1.32    113.49   
    54. A(N   7,B  11,N  15)          104.24 -0.000910    1.18    105.42   
    55. A(F   9,B  11,F  10)          110.96 -0.000249   -0.03    110.93   
    56. A(N   7,B  11,F  10)          107.63  0.001111   -0.03    107.60   
    57. A(C   1,C  14,N   7)          121.98  0.003320   -0.14    121.84   
    58. A(C   0,C  14,N   7)          107.83 -0.002205    0.27    108.10   
    59. A(C   0,C  14,C   1)          129.82 -0.001195    0.04    129.86   
    60. A(C   8,N  15,B  11)          121.95  0.005698   -0.08    121.87   
    61. A(C   5,N  15,B  11)          128.21 -0.003031    0.07    128.28   
    62. A(C   5,N  15,C   8)          108.14 -0.002897    0.29    108.44   
    63. D(C   6,C   3,C   0,H  16)   -179.11  0.000306   -0.76   -179.86   
    64. D(I  12,C   3,C   0,C  14)    179.11  0.000722   -1.28    177.83   
    65. D(I  12,C   3,C   0,H  16)     -1.66 -0.000339    0.59     -1.07   
    66. D(C   6,C   3,C   0,C  14)      1.66  0.001367   -2.62     -0.96   
    67. D(C   5,C   4,C   2,C   8)      1.35  0.000126   -0.58      0.76   
    68. D(I  13,C   4,C   2,C   8)   -178.88 -0.000138    0.06   -178.82   
    69. D(I  13,C   4,C   2,H  18)     -0.08  0.000171    0.01     -0.08   
    70. D(C   5,C   4,C   2,H  18)   -179.85  0.000435   -0.64   -180.49   
    71. D(N  15,C   5,C   4,C   2)     -1.45 -0.000479    0.77     -0.68   
    72. D(H  19,C   5,C   4,C   2)    178.86  0.000101    0.39    179.25   
    73. D(H  19,C   5,C   4,I  13)     -0.92  0.000348   -0.23     -1.15   
    74. D(N  15,C   5,C   4,I  13)    178.77 -0.000232    0.15    178.92   
    75. D(H  20,C   6,C   3,C   0)   -179.04  0.000195   -0.09   -179.14   
    76. D(N   7,C   6,C   3,I  12)   -177.48 -0.000076    0.00   -177.48   
    77. D(N   7,C   6,C   3,C   0)      0.08 -0.000621    1.28      1.36   
    78. D(H  20,C   6,C   3,I  12)      3.40  0.000740   -1.37      2.03   
    79. D(C  14,N   7,C   6,C   3)     -1.84 -0.000393    0.65     -1.19   
    80. D(C  14,N   7,C   6,H  20)    177.38 -0.001098    1.87    179.25   
    81. D(B  11,N   7,C   6,H  20)     23.11  0.001525   -2.10     21.01   
    82. D(B  11,N   7,C   6,C   3)   -156.10  0.002231   -3.33   -159.43   
    83. D(N  15,C   8,C   2,H  18)   -179.68 -0.000140    0.30   -179.39   
    84. D(C   1,C   8,C   2,H  18)     -3.21  0.000372   -0.24     -3.45   
    85. D(C   1,C   8,C   2,C   4)    175.66  0.000719   -0.31    175.35   
    86. D(N  15,C   8,C   1,H  17)   -177.75 -0.000049    0.50   -177.25   
    87. D(N  15,C   8,C   2,C   4)     -0.82  0.000207    0.23     -0.59   
    88. D(N  15,C   8,C   1,C  14)      8.73  0.001502   -3.23      5.50   
    89. D(C   2,C   8,C   1,H  17)      6.05 -0.000829    1.13      7.18   
    90. D(C   2,C   8,C   1,C  14)   -167.47  0.000723   -2.60   -170.07   
    91. D(F  10,B  11,N   7,C   6)     82.53  0.000190   -1.76     80.77   
    92. D(F   9,B  11,N   7,C  14)    167.86  0.003472   -5.62    162.25   
    93. D(N  15,B  11,N   7,C   6)   -164.24 -0.001180   -0.95   -165.19   
    94. D(F  10,B  11,N   7,C  14)    -70.00  0.001900   -5.62    -75.62   
    95. D(F   9,B  11,N   7,C   6)    -39.61  0.001762   -1.75    -41.36   
    96. D(C   1,C  14,N   7,B  11)    -25.46 -0.001027    2.23    -23.23   
    97. D(C   1,C  14,N   7,C   6)    176.52  0.000388   -0.80    175.73   
    98. D(C   0,C  14,N   7,C   6)      2.87  0.001200   -2.29      0.58   
    99. D(N   7,C  14,C   1,H  17)   -177.38  0.000756   -1.49   -178.87   
   100. D(N   7,C  14,C   1,C   8)     -3.84 -0.000899    2.25     -1.59   
   101. D(C   0,C  14,C   1,H  17)     -5.25 -0.000214    0.38     -4.87   
   102. D(C   0,C  14,C   1,C   8)    168.29 -0.001869    4.11    172.40   
   103. D(N   7,C  14,C   0,H  16)    177.99 -0.000500    1.20    179.19   
   104. D(C   0,C  14,N   7,B  11)    160.88 -0.000215    0.74    161.62   
   105. D(N   7,C  14,C   0,C   3)     -2.76 -0.001533    3.02      0.26   
   106. D(C   1,C  14,C   0,H  16)      5.00  0.000021   -0.44      4.56   
   107. D(C   1,C  14,C   0,C   3)   -175.75 -0.001012    1.39   -174.37   
   108. D(C   8,N  15,B  11,F   9)   -163.07 -0.001603    4.42   -158.65   
   109. D(C   8,N  15,B  11,N   7)    -40.35 -0.003621    4.57    -35.78   
   110. D(C   5,N  15,B  11,F  10)    -89.87 -0.001843    3.74    -86.13   
   111. D(C   5,N  15,B  11,N   7)    156.34 -0.002172    3.15    159.49   
   112. D(B  11,N  15,C   8,C   2)   -166.32  0.001040   -0.91   -167.23   
   113. D(B  11,N  15,C   8,C   1)     16.61  0.000327   -0.39     16.21   
   114. D(C   5,N  15,C   8,C   2)     -0.06 -0.000493    0.24      0.18   
   115. D(C   5,N  15,C   8,C   1)   -177.13 -0.001206    0.75   -176.38   
   116. D(C   5,N  15,B  11,F   9)     33.62 -0.000154    3.01     36.62   
   117. D(B  11,N  15,C   5,H  19)    -14.22 -0.000025    0.95    -13.27   
   118. D(B  11,N  15,C   5,C   4)    166.06  0.000517    0.60    166.66   
   119. D(C   8,N  15,C   5,H  19)   -179.37  0.000063   -0.26   -179.63   
   120. D(C   8,N  15,C   5,C   4)      0.92  0.000604   -0.61      0.30   
    ----------------------------------------------------------------------------

Geometry step timings:
Preparation and reading OPT file:      0.000 s ( 0.570 %)
Internal coordinates            :      0.000 s ( 0.988 %)
B/P matrices and projection     :      0.002 s (26.476 %)
Hessian update/contruction      :      0.001 s (10.400 %)
Making the step                 :      0.003 s (35.343 %)
Converting the step to Cartesian:      0.000 s ( 3.040 %)
Storing new data                :      0.000 s ( 0.899 %)
Checking convergence            :      0.000 s ( 1.279 %)
Final printing                  :      0.002 s (21.003 %)
Total time                      :      0.008 s

Time for energy+gradient        :      0.254 s
Time for complete geometry iter :      0.264 s

         *************************************************************
         *                GEOMETRY OPTIMIZATION CYCLE   2            *
         *************************************************************
---------------------------------
CARTESIAN COORDINATES (ANGSTROEM)
---------------------------------
  C    -4.775541    2.810165   -0.170025
  C    -2.250652    3.030770   -0.304265
  C     0.289910    2.866453   -0.028579
  C    -5.573639    1.718129    0.094790
  C     1.079274    1.764413    0.218854
  C     0.245763    0.635267    0.235122
  C    -4.738719    0.597333    0.212288
  N    -3.475844    0.969531    0.059866
  C    -1.032333    2.384603   -0.142970
  F    -2.220356   -1.083160    0.303638
  F    -2.237492   -0.036914   -1.700572
  B    -2.228778    0.122108   -0.324072
  I    -7.643804    1.681285    0.329731
  I     3.137883    1.717025    0.534181
  C    -3.446730    2.332844   -0.187522
  N    -1.007474    1.009210    0.024005
  H    -5.084235    3.826518   -0.316306
  H    -2.274481    4.095202   -0.479014
  H     0.581840    3.894763   -0.103580
  H     0.515586   -0.392703    0.387318
  H    -4.993111   -0.428279    0.401897

----------------------------
CARTESIAN COORDINATES (A.U.)
----------------------------
  NO LB    ZA    FRAG    MASS        X           Y           Z
   0 C   6.0000    0    12.011   -9.024464    5.310443   -0.321301
   1 C   6.0000    0    12.011   -4.253116    5.727326   -0.574978
   2 C   6.0000    0    12.011    0.547851    5.416811   -0.054006
   3 C   6.0000    0    12.011  -10.532651    3.246794    0.179128
   4 C   6.0000    0    12.011    2.039532    3.334258    0.413575
   5 C   6.0000    0    12.011    0.464426    1.200481    0.444317
   6 C   6.0000    0    12.011   -8.954881    1.128796    0.401165
   7 N   7.0000    0    14.007   -6.568394    1.832148    0.113131
   8 C   6.0000    0    12.011   -1.950826    4.506246   -0.270174
   9 F   9.0000    0    18.998   -4.195865   -2.046875    0.573792
  10 F   9.0000    0    18.998   -4.228247   -0.069758   -3.213616
  11 B   5.0000    0    10.810   -4.211781    0.230750   -0.612407
  12 I  53.0000    0   126.900  -14.444697    3.177168    0.623101
  13 I  53.0000    0   126.900    5.929740    3.244706    1.009455
  14 C   6.0000    0    12.011   -6.513377    4.408437   -0.354365
  15 N   7.0000    0    14.007   -1.903850    1.907130    0.045363
  16 H   1.0000    0     1.008   -9.607811    7.231071   -0.597731
  17 H   1.0000    0     1.008   -4.298146    7.738809   -0.905205
  18 H   1.0000    0     1.008    1.099518    7.360036   -0.195738
  19 H   1.0000    0     1.008    0.974316   -0.742101    0.731924
  20 H   1.0000    0     1.008   -9.435613   -0.809331    0.759475

      -----------------------------------------------------------      
     |                   =====================                   |     
     |                           x T B                           |     
     |                   =====================                   |     
     |                         S. Grimme                         |     
     |          Mulliken Center for Theoretical Chemistry        |     
     |                    University of Bonn                     |     
      -----------------------------------------------------------      

   * xtb version 6.7.1 (edcfbbe) compiled by 'albert@albert-system' on 2024-07-22

   xtb is free software: you can redistribute it and/or modify it under
   the terms of the GNU Lesser General Public License as published by
   the Free Software Foundation, either version 3 of the License, or
   (at your option) any later version.
   
   xtb is distributed in the hope that it will be useful,
   but WITHOUT ANY WARRANTY; without even the implied warranty of
   MERCHANTABILITY or FITNESS FOR A PARTICULAR PURPOSE.  See the
   GNU Lesser General Public License for more details.
   
   Cite this work as:
   * C. Bannwarth, E. Caldeweyher, S. Ehlert, A. Hansen, P. Pracht,
     J. Seibert, S. Spicher, S. Grimme, WIREs Comput. Mol. Sci., 2020, 11,
     e01493. DOI: 10.1002/wcms.1493
   
   for GFN2-xTB:
   * C. Bannwarth, S. Ehlert and S. Grimme., J. Chem. Theory Comput., 2019,
     15, 1652-1671. DOI: 10.1021/acs.jctc.8b01176
   for GFN1-xTB:
   * S. Grimme, C. Bannwarth, P. Shushkov, J. Chem. Theory Comput., 2017,
     13, 1989-2009. DOI: 10.1021/acs.jctc.7b00118
   for GFN0-xTB:
   * P. Pracht, E. Caldeweyher, S. Ehlert, S. Grimme, ChemRxiv, 2019, preprint.
     DOI: 10.26434/chemrxiv.8326202.v1
   for GFN-FF:
   * S. Spicher and S. Grimme, Angew. Chem. Int. Ed., 2020, 59, 15665-15673.
     DOI: 10.1002/anie.202004239
   
   for ALPB and GBSA implicit solvation:
   * S. Ehlert, M. Stahn, S. Spicher, S. Grimme, J. Chem. Theory Comput.,
     2021, 17, 4250-4261. DOI: 10.1021/acs.jctc.1c00471
   
   for ddCOSMO and CPCM-X implicit solvation:
   * M. Stahn, S. Ehlert, S. Grimme, J. Phys. Chem. A,
     2023, XX, XXXX-XXXX. DOI: 10.1021/acs.jpca.3c04382
   
   for DFT-D4:
   * E. Caldeweyher, C. Bannwarth and S. Grimme, J. Chem. Phys., 2017,
     147, 034112. DOI: 10.1063/1.4993215
   * E. Caldeweyher, S. Ehlert, A. Hansen, H. Neugebauer, S. Spicher,
     C. Bannwarth and S. Grimme, J. Chem. Phys., 2019, 150, 154122.
     DOI: 10.1063/1.5090222
   * E. Caldeweyher, J.-M. Mewes, S. Ehlert and S. Grimme, Phys. Chem. Chem. Phys.
     2020, 22, 8499-8512. DOI: 10.1039/D0CP00502A
   
   for sTDA-xTB:
   * S. Grimme and C. Bannwarth, J. Chem. Phys., 2016, 145, 054103.
     DOI: 10.1063/1.4959605
   
   in the mass-spec context:
   * V. Asgeirsson, C. Bauer and S. Grimme, Chem. Sci., 2017, 8, 4879.
     DOI: 10.1039/c7sc00601b
   * J. Koopman and S. Grimme, ACS Omega 2019, 4, 12, 15120-15133.
     DOI: 10.1021/acsomega.9b02011
   
   for metadynamics refer to:
   * S. Grimme, J. Chem. Theory Comput., 2019, 155, 2847-2862
     DOI: 10.1021/acs.jctc.9b00143
   
   for SPH calculations refer to:
   * S. Spicher and S. Grimme, J. Chem. Theory Comput., 2021, 17, 1701-1714
     DOI: 10.1021/acs.jctc.0c01306
   
   for ONIOM refer to:
   * C. Plett, A. Katbashev, S. Ehlert, S. Grimme, M. Bursch,
     Phys. Chem. Chem. Phys., 2023, 25, 17860-17868. DOI: 10.1039/D3CP02178E
   
   for DIPRO refer to:
   * J. Kohn, N. Gildemeister, S. Grimme, D. Fazzi, A. Hansen,
     J. Chem. Phys., 2023, just accepted.
   
   for PTB refer to:
   * S. Grimme, M. Mueller, A. Hansen, J. Chem. Phys., 2023, 158, 124111.
     DOI: 10.1063/5.0137838
   
   with help from (in alphabetical order)
   P. Atkinson, C. Bannwarth, F. Bohle, G. Brandenburg, E. Caldeweyher
   M. Checinski, S. Dohm, S. Ehlert, S. Ehrlich, I. Gerasimov, C. Hölzer
   A. Katbashev, J. Kohn, J. Koopman, C. Lavigne, S. Lehtola, F. März, M. Müller,
   F. Musil, H. Neugebauer, J. Pisarek, C. Plett, P. Pracht, F. Pultar,
   J. Seibert, P. Shushkov, S. Spicher, M. Stahn, M. Steiner, T. Strunk,
   J. Stückrath, T. Rose, and J. Unsleber
   
 * started run on 2025/10/30 at 12:23:08.427     
   ID    Z sym.   atoms
    1    6 C      1-7, 9, 15
    2    7 N      8, 16
    3    9 F      10, 11
    4    5 B      12
    5   53 I      13, 14
    6    1 H      17-21

           -------------------------------------------------
          |                Calculation Setup                |
           -------------------------------------------------

          program call               : otool_xtb Iodo_Opt_XTB.xyz --grad -c 0 -u 0 -P 1 --namespace Iodo_Opt --input Iodo_Opt_XTB.input.tmp --acc 0.200000
          calculation namespace      : Iodo_Opt
          coordinate file            : Iodo_Opt_XTB.xyz
          omp threads                :                     1


           -------------------------------------------------
          |                 G F N 2 - x T B                 |
           -------------------------------------------------

        Reference                      10.1021/acs.jctc.8b01176
      * Hamiltonian:
        H0-scaling (s, p, d)           1.850000    2.230000    2.230000
        zeta-weighting                 0.500000
      * Dispersion:
        s8                             2.700000
        a1                             0.520000
        a2                             5.000000
        s9                             5.000000
      * Repulsion:
        kExp                           1.500000    1.000000
        rExp                           1.000000
      * Coulomb:
        alpha                          2.000000
        third order                    shell-resolved
        anisotropic                    true
        a3                             3.000000
        a5                             4.000000
        cn-shift                       1.200000
        cn-exp                         4.000000
        max-rad                        5.000000

q/qsh data taken from xtbrestart
CAMM data taken from xtbrestart

          ...................................................
          :                      SETUP                      :
          :.................................................:
          :  # basis functions                  81          :
          :  # atomic orbitals                  79          :
          :  # shells                           39          :
          :  # electrons                        82          :
          :  max. iterations                   250          :
          :  Hamiltonian                  GFN2-xTB          :
          :  restarted?                       true          :
          :  GBSA solvation                  false          :
          :  PC potential                    false          :
          :  electronic temp.          300.0000000     K    :
          :  accuracy                    0.2000000          :
          :  -> integral cutoff          0.3198970E+02      :
          :  -> integral neglect         0.2000000E-08      :
          :  -> SCF convergence          0.2000000E-06 Eh   :
          :  -> wf. convergence          0.2000000E-04 e    :
          :  Broyden damping             0.4000000          :
          :  net charge                          0          :
          :  unpaired electrons                  0          :
          ...................................................

 iter      E             dE          RMSdq      gap      omega  full diag
   1    -46.6359861 -0.466360E+02  0.244E-01    1.43       0.0  T
   2    -46.6359933 -0.716323E-05  0.139E-01    1.44       1.0  T
   3    -46.6357975  0.195813E-03  0.103E-01    1.41       1.0  T
   4    -46.6360255 -0.228057E-03  0.184E-02    1.43       1.2  T
   5    -46.6360270 -0.150737E-05  0.124E-02    1.43       1.8  T
   6    -46.6360280 -0.920657E-06  0.777E-03    1.43       2.8  T
   7    -46.6360287 -0.727815E-06  0.300E-03    1.43       7.3  T
   8    -46.6360287 -0.130789E-07  0.196E-03    1.43      11.1  T
   9    -46.6360287  0.376257E-08  0.127E-03    1.43      17.1  T
  10    -46.6360287 -0.107366E-07  0.515E-04    1.43      42.4  T
  11    -46.6360287 -0.221858E-08  0.205E-04    1.43     106.5  T
  12    -46.6360287 -0.464055E-10  0.133E-04    1.43     163.9  T
  13    -46.6360287 -0.638209E-10  0.684E-05    1.43     319.0  T

   *** convergence criteria satisfied after 13 iterations ***

         #    Occupation            Energy/Eh            Energy/eV
      -------------------------------------------------------------
         1        2.0000           -0.7927685             -21.5723
       ...           ...                  ...                  ...
        35        2.0000           -0.4642922             -12.6340
        36        2.0000           -0.4604474             -12.5294
        37        2.0000           -0.4381956             -11.9239
        38        2.0000           -0.4292003             -11.6791
        39        2.0000           -0.4278756             -11.6431
        40        2.0000           -0.4223210             -11.4919
        41        2.0000           -0.4124294             -11.2228 (HOMO)
        42                         -0.3598597              -9.7923 (LUMO)
        43                         -0.2501519              -6.8070
        44                         -0.2437016              -6.6315
        45                         -0.2394638              -6.5161
        46                         -0.2284223              -6.2157
       ...                                ...                  ...
        79                          0.6411501              17.4466
      -------------------------------------------------------------
                  HL-Gap            0.0525696 Eh            1.4305 eV
             Fermi-level           -0.3861446 Eh          -10.5075 eV

 SCC (total)                   0 d,  0 h,  0 min,  0.048 sec
 SCC setup                      ...        0 min,  0.000 sec (  0.745%)
 Dispersion                     ...        0 min,  0.000 sec (  0.512%)
 classical contributions        ...        0 min,  0.000 sec (  0.095%)
 integral evaluation            ...        0 min,  0.010 sec ( 20.280%)
 iterations                     ...        0 min,  0.019 sec ( 39.244%)
 molecular gradient             ...        0 min,  0.018 sec ( 38.448%)
 printout                       ...        0 min,  0.000 sec (  0.588%)

         :::::::::::::::::::::::::::::::::::::::::::::::::::::
         ::                     SUMMARY                     ::
         :::::::::::::::::::::::::::::::::::::::::::::::::::::
         :: total energy             -46.135176047557 Eh    ::
         :: gradient norm              0.013318760600 Eh/a0 ::
         :: HOMO-LUMO gap              1.430492630551 eV    ::
         ::.................................................::
         :: SCC energy               -46.636140358824 Eh    ::
         :: -> isotropic ES            0.085573400482 Eh    ::
         :: -> anisotropic ES         -0.004064077997 Eh    ::
         :: -> anisotropic XC          0.007812191281 Eh    ::
         :: -> dispersion             -0.026931259516 Eh    ::
         :: repulsion energy           0.500964311267 Eh    ::
         :: add. restraining           0.000000000000 Eh    ::
         :: total charge               0.000000000000 e     ::
         :::::::::::::::::::::::::::::::::::::::::::::::::::::


Property printout bound to 'properties.out'

           -------------------------------------------------
          | TOTAL ENERGY              -46.135176047557 Eh   |
          | GRADIENT NORM               0.013318760600 Eh/α |
          | HOMO-LUMO GAP               1.430492630551 eV   |
           -------------------------------------------------

------------------------------------------------------------------------
 * finished run on 2025/10/30 at 12:23:08.496     
------------------------------------------------------------------------
 total:
 * wall-time:     0 d,  0 h,  0 min,  0.068 sec
 *  cpu-time:     0 d,  0 h,  0 min,  0.067 sec
 * ratio c/w:     0.987 speedup
 SCF:
 * wall-time:     0 d,  0 h,  0 min,  0.048 sec
 *  cpu-time:     0 d,  0 h,  0 min,  0.047 sec
 * ratio c/w:     0.984 speedup


-------------------------   --------------------
FINAL SINGLE POINT ENERGY       -46.135176047560
-------------------------   --------------------


-------------
DIPOLE MOMENT
-------------
                                X             Y             Z
Total Dipole Moment    :      0.00500       1.70500       0.38800
                        -----------------------------------------
Magnitude (a.u.)       :      1.74860
Magnitude (Debye)      :      4.44458


------------------
CARTESIAN GRADIENT
------------------

   1   C   :    0.002018493   -0.001040133   -0.001086568
   2   C   :   -0.000121375    0.001340082   -0.000335036
   3   C   :    0.001024871   -0.001200898   -0.000094348
   4   C   :   -0.000196047   -0.000188396   -0.000277293
   5   C   :    0.000620118   -0.000821184    0.000005082
   6   C   :    0.000386261    0.000327242    0.000542456
   7   C   :   -0.002972541    0.001389189   -0.000329533
   8   N   :   -0.000550386   -0.002989727    0.006193883
   9   C   :    0.004026394    0.003860300    0.000275401
  10   F   :   -0.001697168   -0.001810045   -0.001984581
  11   F   :    0.000854706    0.000318038   -0.002759559
  12   B   :    0.002229165    0.002400575    0.002553602
  13   I   :   -0.000014613   -0.000229054    0.000403636
  14   I   :   -0.000141922   -0.000357460    0.000071390
  15   C   :   -0.000554015   -0.001796966   -0.001344687
  16   N   :   -0.005142374    0.000823883   -0.001695787
  17   H   :    0.000062664    0.000189067   -0.000172524
  18   H   :    0.000096837   -0.000238713   -0.000377844
  19   H   :   -0.001382882    0.000188351   -0.000164532
  20   H   :    0.000457885    0.000068605    0.000365910
  21   H   :    0.000995930   -0.000232756    0.000210931

Difference to translation invariance:
           :    0.0000000000   -0.0000000000   -0.0000000000

Difference to rotation invariance:
           :   -0.0000001067   -0.0000000530   -0.0000000630

Norm of the Cartesian gradient     ...    0.0133187606
RMS gradient                       ...    0.0016780061
MAX gradient                       ...    0.0061938828
------------------------------------------------------------------------------
                         ORCA GEOMETRY RELAXATION STEP
------------------------------------------------------------------------------

Reading the OPT-File                    .... done
Getting information on internals        .... done
Copying old internal coords+grads       .... done
Making the new internal coordinates     .... (2022 redundants) done
Validating the new internal coordinates .... (2022 redundants) done
Calculating the B-matrix                .... done
Calculating the G,G- and P matrices     .... done
Transforming gradient to internals      .... done
Projecting the internal gradient        .... done
Number of atoms                         ....  21
Number of internal coordinates          .... 120
Current Energy                          ....   -46.135176048 Eh
Current gradient norm                   ....     0.013318761 Eh/bohr
Maximum allowed component of the step   ....  0.300
Current trust radius                    ....  0.300
Updating the Hessian (BFGS)             .... done
Forming the augmented Hessian           .... done
Diagonalizing the augmented Hessian     .... done
Last element of RFO vector              ....  0.937643903
Lowest eigenvalues of augmented Hessian:
 -0.002165555  0.012887688  0.021625334  0.024553099  0.025720997
Length of the computed step             ....  0.370713592
Warning: the length of the step is outside the trust region - taking restricted step instead
The input lambda is                     ....     0.010184
   iter:   5  x=    0.003953  g=  380.595642 f(x)=     0.864973
   iter:  10  x=   -0.005438  g=   10.547130 f(x)=     0.000697
The output lambda is                    ....    -0.005438 (13 iterations)
The final length of the internal step   ....  0.300000000
Converting the step to Cartesian space:
 Initial RMS(Int)=    0.0273861279
Transforming coordinates:
 Iter   0:  RMS(Cart)=    0.0688730131 RMS(Int)=    0.8091612977
 Iter   5:  RMS(Cart)=    0.0000000399 RMS(Int)=    0.0000000292
done
Storing new coordinates                 .... done
The predicted energy change is          ....    -0.001145596
Previously predicted energy change      ....    -0.001560322
Actually observed energy change         ....    -0.002097360
Ratio of predicted to observed change   ....     1.344184086
New trust radius                        ....     0.300000000

                                .--------------------.
          ----------------------|Geometry convergence|-------------------------
          Item                value                   Tolerance       Converged
          ---------------------------------------------------------------------
          Energy change      -0.0020973601            0.0000050000      NO
          RMS gradient        0.0009481905            0.0001000000      NO
          MAX gradient        0.0027162044            0.0003000000      NO
          RMS step            0.0273861279            0.0020000000      NO
          MAX step            0.1196079984            0.0040000000      NO
          -------------------------------------------------------------------------
          ........................................................
          Max(Bonds)      0.0067      Max(Angles)    1.97
          Max(Dihed)        6.85      Max(Improp)    0.00
          ---------------------------------------------------------------------

The optimization has not yet converged - more geometry cycles are needed


    ---------------------------------------------------------------------------
                         Redundant Internal Coordinates
                            (Angstroem and degrees)

        Definition                    Value    dE/dq     Step     New-Value
    ----------------------------------------------------------------------------
     1. B(C   3,C   0)                1.3783  0.000700 -0.0011    1.3772   
     2. B(C   4,C   2)                1.3780  0.000570 -0.0015    1.3764   
     3. B(C   5,C   4)                1.4036 -0.000527  0.0003    1.4039   
     4. B(C   6,C   3)                1.4025 -0.000885  0.0018    1.4044   
     5. B(N   7,C   6)                1.3254  0.000774 -0.0007    1.3247   
     6. B(C   8,C   2)                1.4119 -0.000505  0.0009    1.4129   
     7. B(C   8,C   1)                1.3885  0.000328 -0.0013    1.3872   
     8. B(B  11,F  10)                1.3857  0.002699 -0.0049    1.3808   
     9. B(B  11,F   9)                1.3590  0.000678 -0.0016    1.3573   
    10. B(B  11,N   7)                1.5559 -0.000340  0.0045    1.5604   
    11. B(I  12,C   3)                2.0838  0.000064 -0.0001    2.0836   
    12. B(I  13,C   4)                2.0832 -0.000121  0.0009    2.0841   
    13. B(C  14,N   7)                1.3859  0.000390 -0.0007    1.3852   
    14. B(C  14,C   1)                1.3897  0.002194 -0.0067    1.3831   
    15. B(C  14,C   0)                1.4120 -0.001188  0.0028    1.4149   
    16. B(N  15,B  11)                1.5491 -0.000382  0.0034    1.5525   
    17. B(N  15,C   8)                1.3857  0.000965 -0.0004    1.3853   
    18. B(N  15,C   5)                1.3248  0.001151 -0.0018    1.3230   
    19. B(H  16,C   0)                1.0722  0.000185 -0.0004    1.0718   
    20. B(H  17,C   1)                1.0789 -0.000176  0.0004    1.0794   
    21. B(H  18,C   2)                1.0716 -0.000184  0.0010    1.0726   
    22. B(H  19,C   5)                1.0736  0.000101 -0.0001    1.0736   
    23. B(H  20,C   6)                1.0736  0.000024 -0.0002    1.0734   
[...]
   118. D(B  11,N  15,C   5,C   4)    179.90 -0.000012    0.06    179.96   
   119. D(C   8,N  15,C   5,H  19)    180.00  0.000002   -0.01    179.99   
   120. D(C   8,N  15,C   5,C   4)      0.01  0.000001   -0.00      0.00   
    ----------------------------------------------------------------------------

Geometry step timings:
Preparation and reading OPT file:      0.000 s ( 0.673 %)
Internal coordinates            :      0.000 s ( 1.171 %)
B/P matrices and projection     :      0.001 s (31.704 %)
Hessian update/contruction      :      0.000 s (10.070 %)
Making the step                 :      0.001 s (25.205 %)
Converting the step to Cartesian:      0.000 s ( 2.752 %)
Storing new data                :      0.000 s ( 1.054 %)
Checking convergence            :      0.000 s ( 2.108 %)
Final printing                  :      0.001 s (25.234 %)
Total time                      :      0.003 s
                 *******************************************************
                 *** FINAL ENERGY EVALUATION AT THE STATIONARY POINT ***
                 ***               (AFTER   13 CYCLES)               ***
                 *******************************************************
---------------------------------
CARTESIAN COORDINATES (ANGSTROEM)
---------------------------------
  C    -4.788512    2.850379   -0.090537
  C    -2.254068    3.068009   -0.047808
  C     0.283107    2.883753   -0.004088
  C    -5.590090    1.731202   -0.102820
  C     1.099189    1.775169    0.011763
  C     0.276893    0.637215   -0.000532
  C    -4.753056    0.604099   -0.087623
  N    -3.488422    0.996178   -0.066851
  C    -1.043666    2.393268   -0.026106
  F    -2.249119   -0.698666    1.087096
  F    -2.209509   -0.701934   -1.171721
  B    -2.234396    0.074575   -0.043530
  I    -7.672494    1.666900   -0.138168
  I     3.182242    1.738356    0.047729
  C    -3.455474    2.377226   -0.067644
  N    -0.992727    1.012734   -0.022919
  H    -5.094901    3.877379   -0.096798
  H    -2.261403    4.147275   -0.049209
  H     0.576109    3.914667   -0.000825
  H     0.559167   -0.398247    0.006225
  H    -5.021805   -0.434974   -0.090852

----------------------------
CARTESIAN COORDINATES (A.U.)
----------------------------
  NO LB    ZA    FRAG    MASS        X           Y           Z
   0 C   6.0000    0    12.011   -9.048976    5.386436   -0.171090
   1 C   6.0000    0    12.011   -4.259572    5.797696   -0.090344
   2 C   6.0000    0    12.011    0.534994    5.449504   -0.007725
   3 C   6.0000    0    12.011  -10.563739    3.271498   -0.194302
   4 C   6.0000    0    12.011    2.077167    3.354583    0.022229
   5 C   6.0000    0    12.011    0.523253    1.204162   -0.001006
   6 C   6.0000    0    12.011   -8.981974    1.141582   -0.165583
   7 N   7.0000    0    14.007   -6.592163    1.882504   -0.126330
   8 C   6.0000    0    12.011   -1.972243    4.522621   -0.049333
   9 F   9.0000    0    18.998   -4.250218   -1.320287    2.054315
  10 F   9.0000    0    18.998   -4.175367   -1.326463   -2.214231
  11 B   5.0000    0    10.810   -4.222397    0.140926   -0.082259
  12 I  53.0000    0   126.900  -14.498912    3.149984   -0.261099
  13 I  53.0000    0   126.900    6.013566    3.285017    0.090194
  14 C   6.0000    0    12.011   -6.529900    4.492306   -0.127829
  15 N   7.0000    0    14.007   -1.875981    1.913789   -0.043310
  16 H   1.0000    0     1.008   -9.627968    7.327184   -0.182921
  17 H   1.0000    0     1.008   -4.273432    7.837214   -0.092991
  18 H   1.0000    0     1.008    1.088687    7.397649   -0.001558
  19 H   1.0000    0     1.008    1.056673   -0.752579    0.011764
  20 H   1.0000    0     1.008   -9.489835   -0.821982   -0.171685

      -----------------------------------------------------------      
     |                   =====================                   |     
     |                           x T B                           |     
     |                   =====================                   |     
     |                         S. Grimme                         |     
     |          Mulliken Center for Theoretical Chemistry        |     
     |                    University of Bonn                     |     
      -----------------------------------------------------------      

   * xtb version 6.7.1 (edcfbbe) compiled by 'albert@albert-system' on 2024-07-22

   xtb is free software: you can redistribute it and/or modify it under
   the terms of the GNU Lesser General Public License as published by
   the Free Software Foundation, either version 3 of the License, or
   (at your option) any later version.
   
   xtb is distributed in the hope that it will be useful,
   but WITHOUT ANY WARRANTY; without even the implied warranty of
   MERCHANTABILITY or FITNESS FOR A PARTICULAR PURPOSE.  See the
   GNU Lesser General Public License for more details.
   
   Cite this work as:
   * C. Bannwarth, E. Caldeweyher, S. Ehlert, A. Hansen, P. Pracht,
     J. Seibert, S. Spicher, S. Grimme, WIREs Comput. Mol. Sci., 2020, 11,
     e01493. DOI: 10.1002/wcms.1493
   
   for GFN2-xTB:
   * C. Bannwarth, S. Ehlert and S. Grimme., J. Chem. Theory Comput., 2019,
     15, 1652-1671. DOI: 10.1021/acs.jctc.8b01176
   for GFN1-xTB:
   * S. Grimme, C. Bannwarth, P. Shushkov, J. Chem. Theory Comput., 2017,
     13, 1989-2009. DOI: 10.1021/acs.jctc.7b00118
   for GFN0-xTB:
   * P. Pracht, E. Caldeweyher, S. Ehlert, S. Grimme, ChemRxiv, 2019, preprint.
     DOI: 10.26434/chemrxiv.8326202.v1
   for GFN-FF:
   * S. Spicher and S. Grimme, Angew. Chem. Int. Ed., 2020, 59, 15665-15673.
     DOI: 10.1002/anie.202004239
   
   for ALPB and GBSA implicit solvation:
   * S. Ehlert, M. Stahn, S. Spicher, S. Grimme, J. Chem. Theory Comput.,
     2021, 17, 4250-4261. DOI: 10.1021/acs.jctc.1c00471
   
   for ddCOSMO and CPCM-X implicit solvation:
   * M. Stahn, S. Ehlert, S. Grimme, J. Phys. Chem. A,
     2023, XX, XXXX-XXXX. DOI: 10.1021/acs.jpca.3c04382
   
   for DFT-D4:
   * E. Caldeweyher, C. Bannwarth and S. Grimme, J. Chem. Phys., 2017,
     147, 034112. DOI: 10.1063/1.4993215
   * E. Caldeweyher, S. Ehlert, A. Hansen, H. Neugebauer, S. Spicher,
     C. Bannwarth and S. Grimme, J. Chem. Phys., 2019, 150, 154122.
     DOI: 10.1063/1.5090222
   * E. Caldeweyher, J.-M. Mewes, S. Ehlert and S. Grimme, Phys. Chem. Chem. Phys.
     2020, 22, 8499-8512. DOI: 10.1039/D0CP00502A
   
   for sTDA-xTB:
   * S. Grimme and C. Bannwarth, J. Chem. Phys., 2016, 145, 054103.
     DOI: 10.1063/1.4959605
   
   in the mass-spec context:
   * V. Asgeirsson, C. Bauer and S. Grimme, Chem. Sci., 2017, 8, 4879.
     DOI: 10.1039/c7sc00601b
   * J. Koopman and S. Grimme, ACS Omega 2019, 4, 12, 15120-15133.
     DOI: 10.1021/acsomega.9b02011
   
   for metadynamics refer to:
   * S. Grimme, J. Chem. Theory Comput., 2019, 155, 2847-2862
     DOI: 10.1021/acs.jctc.9b00143
   
   for SPH calculations refer to:
   * S. Spicher and S. Grimme, J. Chem. Theory Comput., 2021, 17, 1701-1714
     DOI: 10.1021/acs.jctc.0c01306
   
   for ONIOM refer to:
   * C. Plett, A. Katbashev, S. Ehlert, S. Grimme, M. Bursch,
     Phys. Chem. Chem. Phys., 2023, 25, 17860-17868. DOI: 10.1039/D3CP02178E
   
   for DIPRO refer to:
   * J. Kohn, N. Gildemeister, S. Grimme, D. Fazzi, A. Hansen,
     J. Chem. Phys., 2023, just accepted.
   
   for PTB refer to:
   * S. Grimme, M. Mueller, A. Hansen, J. Chem. Phys., 2023, 158, 124111.
     DOI: 10.1063/5.0137838
   
   with help from (in alphabetical order)
   P. Atkinson, C. Bannwarth, F. Bohle, G. Brandenburg, E. Caldeweyher
   M. Checinski, S. Dohm, S. Ehlert, S. Ehrlich, I. Gerasimov, C. Hölzer
   A. Katbashev, J. Kohn, J. Koopman, C. Lavigne, S. Lehtola, F. März, M. Müller,
   F. Musil, H. Neugebauer, J. Pisarek, C. Plett, P. Pracht, F. Pultar,
   J. Seibert, P. Shushkov, S. Spicher, M. Stahn, M. Steiner, T. Strunk,
   J. Stückrath, T. Rose, and J. Unsleber
   
 * started run on 2025/10/30 at 12:23:09.227     
   ID    Z sym.   atoms
    1    6 C      1-7, 9, 15
    2    7 N      8, 16
    3    9 F      10, 11
    4    5 B      12
    5   53 I      13, 14
    6    1 H      17-21

           -------------------------------------------------
          |                Calculation Setup                |
           -------------------------------------------------

          program call               : otool_xtb Iodo_Opt_XTB.xyz --grad -c 0 -u 0 -P 1 --namespace Iodo_Opt --input Iodo_Opt_XTB.input.tmp --acc 0.200000
          calculation namespace      : Iodo_Opt
          coordinate file            : Iodo_Opt_XTB.xyz
          omp threads                :                     1


           -------------------------------------------------
          |                 G F N 2 - x T B                 |
           -------------------------------------------------

        Reference                      10.1021/acs.jctc.8b01176
      * Hamiltonian:
        H0-scaling (s, p, d)           1.850000    2.230000    2.230000
        zeta-weighting                 0.500000
      * Dispersion:
        s8                             2.700000
        a1                             0.520000
        a2                             5.000000
        s9                             5.000000
      * Repulsion:
        kExp                           1.500000    1.000000
        rExp                           1.000000
      * Coulomb:
        alpha                          2.000000
        third order                    shell-resolved
        anisotropic                    true
        a3                             3.000000
        a5                             4.000000
        cn-shift                       1.200000
        cn-exp                         4.000000
        max-rad                        5.000000

q/qsh data taken from xtbrestart
CAMM data taken from xtbrestart

          ...................................................
          :                      SETUP                      :
          :.................................................:
          :  # basis functions                  81          :
          :  # atomic orbitals                  79          :
          :  # shells                           39          :
          :  # electrons                        82          :
          :  max. iterations                   250          :
          :  Hamiltonian                  GFN2-xTB          :
          :  restarted?                       true          :
          :  GBSA solvation                  false          :
          :  PC potential                    false          :
          :  electronic temp.          300.0000000     K    :
          :  accuracy                    0.2000000          :
          :  -> integral cutoff          0.3198970E+02      :
          :  -> integral neglect         0.2000000E-08      :
          :  -> SCF convergence          0.2000000E-06 Eh   :
          :  -> wf. convergence          0.2000000E-04 e    :
          :  Broyden damping             0.4000000          :
          :  net charge                          0          :
          :  unpaired electrons                  0          :
          ...................................................

 iter      E             dE          RMSdq      gap      omega  full diag
   1    -46.6416832 -0.466417E+02  0.328E-03    1.43       0.0  T
   2    -46.6416832 -0.241079E-08  0.188E-03    1.43      11.6  T
   3    -46.6416832  0.119034E-07  0.849E-04    1.43      25.7  T
   4    -46.6416832 -0.133065E-07  0.252E-04    1.43      86.5  T
   5    -46.6416832 -0.467644E-09  0.147E-04    1.43     148.7  T
   6    -46.6416832 -0.105800E-10  0.103E-04    1.43     211.1  T

   *** convergence criteria satisfied after 6 iterations ***

         #    Occupation            Energy/Eh            Energy/eV
      -------------------------------------------------------------
         1        2.0000           -0.7910598             -21.5258
       ...           ...                  ...                  ...
        35        2.0000           -0.4672311             -12.7140
        36        2.0000           -0.4605742             -12.5329
        37        2.0000           -0.4381002             -11.9213
        38        2.0000           -0.4290605             -11.6753
        39        2.0000           -0.4278197             -11.6416
        40        2.0000           -0.4224737             -11.4961
        41        2.0000           -0.4128082             -11.2331 (HOMO)
        42                         -0.3602395              -9.8026 (LUMO)
        43                         -0.2465949              -6.7102
        44                         -0.2436084              -6.6289
        45                         -0.2396078              -6.5201
        46                         -0.2284744              -6.2171
       ...                                ...                  ...
        79                          0.6409549              17.4413
      -------------------------------------------------------------
                  HL-Gap            0.0525687 Eh            1.4305 eV
             Fermi-level           -0.3865239 Eh          -10.5178 eV

 SCC (total)                   0 d,  0 h,  0 min,  0.020 sec
 SCC setup                      ...        0 min,  0.000 sec (  0.895%)
 Dispersion                     ...        0 min,  0.000 sec (  0.626%)
 classical contributions        ...        0 min,  0.000 sec (  0.113%)
 integral evaluation            ...        0 min,  0.005 sec ( 27.072%)
 iterations                     ...        0 min,  0.005 sec ( 23.893%)
 molecular gradient             ...        0 min,  0.009 sec ( 46.600%)
 printout                       ...        0 min,  0.000 sec (  0.706%)

         :::::::::::::::::::::::::::::::::::::::::::::::::::::
         ::                     SUMMARY                     ::
         :::::::::::::::::::::::::::::::::::::::::::::::::::::
         :: total energy             -46.138650144869 Eh    ::
         :: gradient norm              0.000141323400 Eh/a0 ::
         :: HOMO-LUMO gap              1.430468484259 eV    ::
         ::.................................................::
         :: SCC energy               -46.641807149101 Eh    ::
         :: -> isotropic ES            0.085128243991 Eh    ::
         :: -> anisotropic ES         -0.003594745411 Eh    ::
         :: -> anisotropic XC          0.007743592606 Eh    ::
         :: -> dispersion             -0.026802556794 Eh    ::
         :: repulsion energy           0.503157004231 Eh    ::
         :: add. restraining           0.000000000000 Eh    ::
         :: total charge               0.000000000000 e     ::
         :::::::::::::::::::::::::::::::::::::::::::::::::::::


Property printout bound to 'properties.out'

           -------------------------------------------------
          | TOTAL ENERGY              -46.138650144869 Eh   |
          | GRADIENT NORM               0.000141323400 Eh/α |
          | HOMO-LUMO GAP               1.430468484259 eV   |
           -------------------------------------------------

------------------------------------------------------------------------
 * finished run on 2025/10/30 at 12:23:09.258     
------------------------------------------------------------------------
 total:
 * wall-time:     0 d,  0 h,  0 min,  0.031 sec
 *  cpu-time:     0 d,  0 h,  0 min,  0.030 sec
 * ratio c/w:     0.973 speedup
 SCF:
 * wall-time:     0 d,  0 h,  0 min,  0.020 sec
 *  cpu-time:     0 d,  0 h,  0 min,  0.020 sec
 * ratio c/w:     0.963 speedup


-------------------------   --------------------
FINAL SINGLE POINT ENERGY       -46.138650144870
-------------------------   --------------------


-------------
DIPOLE MOMENT
-------------
                                X             Y             Z
Total Dipole Moment    :     -0.01200       1.84200      -0.00300
                        -----------------------------------------
Magnitude (a.u.)       :      1.84204
Magnitude (Debye)      :      4.68210

                                *** OPTIMIZATION RUN DONE ***


--------------------------------
SUGGESTED CITATIONS FOR THIS RUN
--------------------------------

Below you find a list of papers that are relevant to this ORCA run
We neither can nor want to force you to cite these papers, but we appreciate if you do
You receive ORCA, which is the product of decades of hard work by many enthusiastic individuals, for free
The only thing we kindly ask in return is that you cite our papers,
We deeply appreciate it, if you show your appreciation for ORCA by not just citing the generic ORCA reference.

Please note that relegating all ORCA citations to the supporting information does *not* help us.
SI sections are not indexed - citations you put there will not count into any citation statistics
But we need these citations in order to attract the funding resources that allow us to do what we are doing

Therefore, if you are a happy ORCA user, please consider citing a few of the papers listed below in the main body of your paper

In addition to the list printed below, the program has created the file Iodo_Opt.bibtex that contains the list in bibtex format
You can import this file easily into all common literature databanks and citation aid programs


List of essential papers. We consider these as the minimum necessary citations

  1. Bannwarth, C.; Ehlert, S.; Grimme, S.
     GFN2-xTB—An Accurate and Broadly Parametrized Self-Consistent Tight-Binding Quantum Chemical Method with Multipole Electrostatics and Density-Dependent Dispersion Contributions
     J. Chem. Theory Comput. 2019 15(3), 1652-1671
     doi.org/10.1021/acs.jctc.8b01176
  2. Neese, F.
     Software update: the ORCA program system, version 6.0
     WIRES Comput. Molec. Sci. 2025 15(1), e70019
     doi.org/10.1002/wcms.7019

List of papers to cite with high priority. The work reported in these papers was absolutely
necessary for this run to complete.
Our perspective: the developers of density functionals and basis sets usually get cited in chemistry papers
Good! But without the algorithms to do something with them, the functionals or basis sets would not do anything.
Hence, in our opinion, the algorithm design and method developments papers are equally worthy of getting cited

  1. Bannwarth, C.; Caldeweyher, E.; Ehlert, S.; Hansen, A.; Pracht, P.; Seibert, J.; Spicher, S.; Grimme, S.
     Extended tight-binding quantum chemistry methods
     WIRES Comput. Molec. Sci. 2020 11(2), e1493
     doi.org/10.1002/wcms.1493

List of suggested additional citations. These are papers that are important in the 'surrounding' of 
of this run, or papers that preceded the highly important papers. If you like your results we are grateful for a citation.

  1. Neese, F.
     The ORCA program system
     WIRES Comput. Molec. Sci. 2012 2(1), 73-78
     doi.org/10.1002/wcms.81
  2. Neese, F.
     Software update: the ORCA program system, version 4.0
     WIRES Comput. Molec. Sci. 2018 8(1), 1-6
     doi.org/10.1002/wcms.1327
  3. Neese, F.; Wennmohs, F.; Becker, U.; Riplinger, C.
     The ORCA quantum chemistry program package
     J. Chem. Phys. 2020 152(22), 224108
     doi.org/10.1063/5.0004608
  4. Neese, F.
     Software update: The ORCA program system—Version 5.0
     WIRES Comput. Molec. Sci. 2022 12(1), e1606
     doi.org/10.1002/wcms.1606

List of optional additional citations

  1. Neese, F.
     Approximate second-order SCF convergence for spin unrestricted wavefunctions
     Chem. Phys. Lett. 2000 325(1-3), 93-98
     doi.org/10.1016/s0009-2614(00)00662-x

Timings for individual modules:

Sum of individual times          ...        1.086 sec (=   0.018 min)
Geometry relaxation              ...        0.093 sec (=   0.002 min)   8.6 %
XTB module                       ...        0.993 sec (=   0.017 min)  91.4 %
                             ****ORCA TERMINATED NORMALLY****
TOTAL RUN TIME: 0 days 0 hours 0 minutes 1 seconds 400 msec
