
                                 *****************
                                 * O   R   C   A *
                                 *****************

                                            #,                                       
                                            ###                                      
                                            ####                                     
                                            #####                                    
                                            ######                                   
                                           ########,                                 
                                     ,,################,,,,,                         
                               ,,#################################,,                 
                          ,,##########################################,,             
                       ,#########################################, ''#####,          
                    ,#############################################,,   '####,        
                  ,##################################################,,,,####,       
                ,###########''''           ''''###############################       
              ,#####''   ,,,,##########,,,,          '''####'''          '####       
            ,##' ,,,,###########################,,,                        '##       
           ' ,,###''''                  '''############,,,                           
         ,,##''                                '''############,,,,        ,,,,,,###''
      ,#''                                            '''#######################'''  
     '                                                          ''''####''''         
             ,#######,   #######,   ,#######,      ##                                
            ,#'     '#,  ##    ##  ,#'     '#,    #''#        ,####,    ,#,          
            ##       ##  ##   ,#'  ##            #'  '#       #'       ,# #          
            ##       ##  #######   ##           ,######,      #####,      #          
            '#,     ,#'  ##    ##  '#,     ,#' ,#      #,     #,   #      #          
             '#######'   ##     ##  '#######'  #'      '#     '####' #    #          



                #########################################################
                #                        -***-                          #
                #          Department of theory and spectroscopy        #
                #                                                       #
                #                      Frank Neese                      #
                #                                                       #
                #     Directorship, Architecture, Infrastructure        #
                #                    SHARK, DRIVERS                     #
                #        Core code/Algorithms in most modules           #
                #                                                       #
                #        Max Planck Institute fuer Kohlenforschung      #
                #                Kaiser Wilhelm Platz 1                 #
                #                 D-45470 Muelheim/Ruhr                 #
                #                      Germany                          #
                #                                                       #
                #                  All rights reserved                  #
                #                        -***-                          #
                #########################################################


                         Program Version 6.1.0  -  RELEASE   -
                                (GIT: $679e74b$)
                          ($2025-06-10 18:02:51 +0200$)


 With contributions from (in alphabetic order):
[Max-Planck-Institut fuer Kohlenforschung]                               
  Daniel Aravena         : Magnetic Suceptibility                        
  Michael Atanasov       : Ab Initio Ligand Field Theory (pilot matlab implementation)
  Alexander A. Auer      : GIAO ZORA, VPT2 properties, NMR spectrum      
  Ute Becker             : All parallelization in ORCA, NUMFREQ, NUMCALC 
  Giovanni Bistoni       : ED, misc. LED, open-shell LED, HFLD           
  Dmytro Bykov           : pre 5.0 version of the SCF Hessian            
  Marcos Casanova-Páez   : Triplet and SCS-CIS(D). UHF-(DLPNO)-IP/EA/STEOM-CCSD. UHF-CVS-IP/STEOM-CCSD   
  Vijay G. Chilkuri      : MRCI spin determinant printing, contributions to CSF-ICE 
  Pauline Colinet        : FMM embedding                                 
  Dipayan Datta          : RHF DLPNO-CCSD density                        
  Achintya Kumar Dutta   : EOM-CC, STEOM-CC                              
  Nicolas Foglia         : Exact transition moments, OPA infrastructure, MCD improvements    
  Dmitry Ganyushin       : Spin-Orbit,Spin-Spin,Magnetic field MRCI      
  Miquel Garcia-Rates    : C-PCM and meta-GGA Hessian, CCSD/C-PCM, Gaussian charge scheme 
  Tiago L. C. Gouveia    : GS-ROHF, GS-ROCIS                             
  Yang Guo               : DLPNO-NEVPT2, F12-NEVPT2, CIM, IAO-localization        
  Andreas Hansen         : Spin unrestricted coupled pair/coupled cluster methods 
  Ingolf Harden          : AUTO-CI MPn and infrastructure                
  Benjamin Helmich-Paris : MC-RPA, TRAH-(SCF,CASSCF), AVAS, COSX integrals, SCF dyn. polar., MC-PDFT, srDFT 
  Lee Huntington         : MR-EOM, pCC                                   
  Robert Izsak           : Overlap fitted RIJCOSX, COSX-SCS-MP3, EOM     
  Riya Kayal             : Wick's Theorem for AUTO-CI, AUTO-CI UHF-CCSDT 
  Emily Kempfer          : AUTO-CI RHF CISDT and CCSDT, approximate NEVPT4
  Christian Kollmar      : KDIIS, OOCD, Brueckner-CCSD(T), CCSD density, CASPT2, CASPT2-K, improved NEVPT2 
  Axel Koslowski         : Symmetry handling                             
  Simone Kossmann        : meta-GGA functionals, TD-DFT gradient, OOMP2, (MP2 Hessian; deprecated post 5.0) 
  Lucas Lang             : DCDCAS, Hyperfine gauge corrections, ICE-SOC+SSC
  Marvin Lechner         : AUTO-CI (C++ implementation), FIC-MRCC        
  Spencer Leger          : CASSCF response                               
  Dagmar Lenk            : GEPOL surface, SMD, ORCA-2-JSON               
  Dimitrios Liakos       : Extrapolation schemes; Compound Job, Property file
  Dimitrios Manganas     : Further ROCIS development; embedding schemes. LFT, Crystal Embedding 
  Dimitrios Pantazis     : SARC Basis sets                               
  Anastasios Papadopoulos: AUTO-CI, single reference methods and gradients 
  Taras Petrenko         : pre 6.0 DFT Hessian and TD-DFT gradient,  ECA, NRVS 
  Petra Pikulova         : Analytic Raman intensities                    
  Peter Pinski           : DLPNO-MP2, DLPNO-MP2 Gradient                 
  Shashank Vittal Rao    : ES-AILFT, MagRelax                            
  Christoph Reimann      : Effective Core Potentials                     
  Marius Retegan         : Local ZFS, SOC                                
  Christoph Riplinger    : Optimizer, TS searches, QM/MM, DLPNO-CCSD(T), (RO)-DLPNO pert. Triples 
  Michael Roemelt        : Original ROCIS implementation, recursive CI coupling coefficients
  Masaaki Saitow         : Open-shell DLPNO-CCSD energy and density      
  Barbara Sandhoefer     : DKH picture change effects                    
  Yorick L. A. Schmerwitz: GMF and freeze-and-release deltaSCF, NEB S-IDPP initial path                    
  Kantharuban Sivalingam : CASSCF convergence/infrastructure, NEVPT2, NEVPT3, NEVPT4(SD), FIC-MRCI and CEPA variants
  Bernardo de Souza      : ESD, SOC TD-DFT                               
  Georgi L. Stoychev     : AutoAux, RI-MP2 NMR, DLPNO-MP2 response, X2C  
  Van Anh Tran           : RI-MP2 g-tensors                              
  Willem Van den Heuvel  : Paramagnetic NMR                              
  Zikuan Wang            : NOTCH, Electric field optimization            
  Frank Wennmohs         : Technical directorship and infrastructure     
  Hang Xu                : AUTO-CI-Response properties                   
                                                                         
[FACCTs GmbH]                                                            
  Markus Bursch, Nicolas Foglia, Miquel Garcia-Rates, Ingolf Harden, Hagen Neugebauer, Anastasios Papadopoulos, 
  Christoph Riplinger, Bernardo de Souza, Georgi L. Stoychev                                                    
                                                                 
  APM, various basis sets, CI-OPT, improved COSX, DLPNO-Multilevel,           
  DOCKER, DRACO, updates on ESD, Fragmentator, GOAT, IRC, LR-CPCM, L-BFGS, MBIS, meta-GGA TD-DFT gradient, ML-optimized integration grids, 
  MM, NACMEs, nearIR, NEB, NEB-TS, NL-DFT gradient (VV10), 2- and 3-layer-ONIOM, interface openCOSMO-RS, QMMM,   
  Crystal-QMMM, RESP, rigid body optimization, SF, symmetry and pop. for TD-DFT, various functionals, SOLVATOR                                   
                                                                         
[Other institutions]                                                     
  V. Asgeirsson          : NEB                                           
  Christoph Bannwarth    : sTDA-DFT, sTD-DFT, PBEh-3c, B97-3c, D3        
  Giovanni Bistoni       : ETS/NOCV, ADLD/ADEX, COVALED                  
  Martin Brehm           : Molecular dynamics                            
  Ronald Cardenas        : ETS/NOCV                                      
  Martina Colucci        : COVALED                                       
  Sebastian Ehlert       : rSCAN, r2SCAN, r2SCAN-3c, D4, dhf basis sets  
  Marvin Friede          : D4 for Fr, Ra, Ac-Lr                          
  Lars Goerigk           : TD-DFT with DH, B97 family of functionals     
  Stefan Grimme          : VdW corrections, initial TS optimization, DFT functionals, gCP, sTDA/sTD-DF 
  Waldemar Hujo          : DFT-NL                                        
  H. Jonsson             : NEB                                           
  Holger Kruse           : gCP                                           
  Marcel Mueller         : wB97X-3c, vDZP basis set                      
  Hagen Neugebauer       : wr2SCAN, Native XTB                           
  Gianluca Regni         : ADLD/ADEX                                     
  Tobias Risthaus        : pre 6.0 range-separated hybrid DFT and stability analysis
  Lukas Wittmann         : regularized MP2, r2SCAN double-hybrids, wr2SCAN        
                                                                         
We gratefully acknowledge several colleagues who have allowed us to      
interface, adapt or use parts of their codes:                            
  Ed Valeev, F. Pavosevic, A. Kumar             : LibInt (2-el integral package), F12 methods 
  Garnet Chan, S. Sharma, J. Yang, R. Olivares  : DMRG                   
  Ulf Ekstrom                                   : XCFun DFT Library      
  Mihaly Kallay                                 : mrcc  (arbitrary order and MRCC methods)
  Frank Weinhold                                : gennbo (NPA and NBO analysis)           
  Simon Mueller                                 : openCOSMO-RS                            
  Christopher J. Cramer and Donald G. Truhlar   : smd solvation model                     
  S Lehtola, MJT Oliveira, MAL Marques          : LibXC Library                           
  Liviu Ungur et al                             : ANISO software                          


 Your calculation uses the libint2 library for the computation of 2-el integrals
 For citations please refer to: http://libint.valeyev.net

 Your ORCA version has been built with support for libXC version: 7.0.0
 For citations please refer to: https://libxc.gitlab.io

 This ORCA versions uses:
   CBLAS   interface :  Fast vector & matrix operations
   LAPACKE interface :  Fast linear algebra routines
   SCALAPACK package :  Parallel linear algebra routines
   Shared memory     :  Shared parallel matrices
   BLAS/LAPACK       :  OpenBLAS 0.3.29  USE64BITINT DYNAMIC_ARCH NO_AFFINITY Haswell SINGLE_THREADED
        Core in use  :  Haswell
   Copyright (c) 2011-2014, The OpenBLAS Project


  ***********************************
  * Starting time: Fri Jan  2 05:56:27 2026
  * Host name:     corine-kengne-Latitude-5491
  * Process ID:    86586
  * Working dir.:  /home/corine-kengne/Documents/Travaux M2/Orca_optimisation/TPP-BODIPY
  ***********************************

NOTE: MaxCore=10000 MB was set to SCF,MP2,MDCI,CIPSI,MRCI,RASCI and CIS
      => If you want to overwrite this, your respective input block should be placed after the MaxCore statement
Your calculation utilizes the semiempirical GFN2-xTB method
Please cite in your paper:
Bannwarth, C.; Ehlert S.; Grimme, S. J. Chem. Theory Comput. 2019, 15, 1652.
   

================================================================================

================================================================================
                                        WARNINGS
                       Please study these warnings very carefully!
================================================================================


WARNING: Geometry Optimization
  ===> : Switching off AutoStart
         For restart on a previous wavefunction, please use MOREAD

WARNING: Found dipole moment calculation with XTB calculation
  ===> : Switching off dipole moment calculation


================================================================================
                                       INPUT FILE
================================================================================
NAME = TPP_BODIPY_Opt.inp
|  1> ! xtb2 Opt
|  2> 
|  3> %maxcore 10000          # Alloue 10000 Mo de RAM pour le calcul
|  4> 
|  5> * xyz 1 1               # Début des coordonnées : charge 0, multiplicité 1 (singulet)
|  6> P     -6.3756572725   10.9616146996    0.9252157322
|  7> C     -7.4810012725   15.5243186996    2.1080617322
|  8> C     -7.2120472725   15.1228516996    0.6610947322
|  9> C     -6.3316832725   13.8806856996    0.5760737322
| 10> C     -6.8175022725   12.7184726996    1.4664187322
| 11> C     -8.1785692725   14.3819546996    2.8455577322
| 12> C     -7.3348622725   13.1082616996    2.8618037322
| 13> C     -9.1729722725   11.8149066996    0.0428297322
| 14> C    -10.6121162725   11.7990426996    0.5732757322
| 15> C    -11.2235432725   10.4013856996    0.4724877322
| 16> C    -10.3082332725    9.3444566996    1.0880087322
| 17> C     -8.8914782725    9.4588996996    0.5207377322
| 18> C     -8.2866692725   10.8264876996    0.8546917322
| 19> C     -2.5823482725   12.6844706996    1.9197907322
| 20> C     -3.6442642725   12.0050976996    1.0606497322
| 21> C     -4.8960062725   11.6520136996    1.8760707322
| 22> C     -2.1591452725   11.7781096996    3.0789637322
| 23> C     -3.3112852725   11.1628056996    3.8889507322
| 24> C     -4.7201982725   11.4945786996    3.3991847322
| 25> H     -7.9054982725    5.2015576996    1.2894827322
| 26> H     -8.1263142725   16.4273456996    2.1203847322
| 27> H     -6.7311412725   15.9543496996    0.1045527322
| 28> H     -8.4061662725   14.6866746996    3.8879247322
| 29> H     -7.9138342725   12.2826856996    3.3242467322
| 30> H     -6.2616002725   13.5689306996   -0.4874972678
| 31> H     -3.8848172725   12.6190216996    0.1700947322
| 32> H     -1.6988122725   12.9840536996    1.3187537322
| 33> H     -1.4987252725   10.9716056996    2.6938917322
| 34> H     -3.1805922725   10.0631906996    3.9761397322
| 35> H     -5.5316242725   10.9669226996    3.9389727322
| 36> H     -8.8080982725    9.1775996996   -0.5503082678
| 37> H    -10.7160742725    8.3230326996    0.9458477322
| 38> H    -12.2188722725   10.3816436996    0.9643427322
| 39> H    -11.2517272725   12.5148156996    0.0153267322
| 40> H     -8.8829802725   12.8787236996    0.0108437322
| 41> C     -5.8500802725    9.2504376996    1.6043387322
| 42> C     -6.8027222725    8.0779506996    1.8292157322
| 43> C     -7.4723572725    7.9118226996    3.1731967322
| 44> C     -8.3325012725    6.7232716996    2.8163347322
| 45> C     -7.3798672725    5.8607096996    2.0082297322
| 46> C     -4.3863852725    8.7775296996    1.6593137322
| 47> C     -3.4316792725    8.9570896996    0.4911797322
| 48> C     -2.2041152725    8.1960666996    0.9617737322
| 49> C     -2.6891282725    7.3746246996    2.1472397322
| 50> N     -6.4211222725    6.7450376996    1.3503867322
| 51> N     -4.1368872725    7.4717296996    2.2638387322
| 52> B     -4.9451802725    6.3136416996    1.6059967322
| 53> F     -4.8207252725    5.1389766996    2.4637157322
| 54> F     -4.3905372725    5.9415566996    0.3092117322
| 55> H     -1.4268532725    8.8896086996    1.3428257322
| 56> H     -2.1900782725    6.4278846996    2.4307517322
| 57> H     -3.8419992725    8.4567966996   -0.4095292678
| 58> H     -8.0815812725    8.7900876996    3.4636037322
| 59> H     -8.7997712725    6.1992996996    3.6750297322
| 60> *
| 61> 
| 62>                          ****END OF INPUT****
================================================================================

                       *****************************
                       * Geometry Optimization Run *
                       *****************************

Geometry optimization settings:
Update method            Update   .... BFGS
Choice of coordinates    CoordSys .... (2022) Redundant Internals
Initial Hessian          InHess   .... Almloef's Model
Max. no of cycles        MaxIter  .... 162

Convergence Tolerances:
Energy Change            TolE     ....  5.0000e-06 Eh
Max. Gradient            TolMAXG  ....  3.0000e-04 Eh/bohr
RMS Gradient             TolRMSG  ....  1.0000e-04 Eh/bohr
Max. Displacement        TolMAXD  ....  4.0000e-03 bohr
RMS Displacement         TolRMSD  ....  2.0000e-03 bohr
Strict Convergence                .... False

------------------------------------------------------------------------------
                        ORCA OPTIMIZATION COORDINATE SETUP
------------------------------------------------------------------------------

The optimization will be done in redundant internal coordinates (2022)
Making redundant internal coordinates   ...  (2022 redundants) done
Evaluating the initial hessian          ...  (Almloef) done
Evaluating the coordinates              ...  done
Calculating the B-matrix                .... done
Calculating the G-matrix                .... done
The number of degrees of freedom        ....  308

    -----------------------------------------------------------------
                    Redundant Internal Coordinates


    -----------------------------------------------------------------
         Definition                    Initial Value    Approx d2E/dq
    -----------------------------------------------------------------
      1. B(C   2,C   1)                  1.5255         0.379767   
      2. B(C   3,C   2)                  1.5249         0.380674   
      3. B(C   4,P   0)                  1.8907         0.333754   
      4. B(C   4,C   3)                  1.5426         0.356737   
      5. B(C   5,C   1)                  1.5282         0.376007   
      6. B(C   6,C   4)                  1.5384         0.362214   
      7. B(C   6,C   5)                  1.5279         0.376504   
      8. B(C   8,C   7)                  1.5339         0.368300   
      9. B(C   9,C   8)                  1.5289         0.375127   
     10. B(C  10,C   9)                  1.5277         0.376794   
     11. B(C  11,C  10)                  1.5304         0.373042   
     12. B(C  12,C  11)                  1.5322         0.370577   
     13. B(C  12,C   7)                  1.5562         0.339348   
     14. B(C  12,P   0)                  1.9171         0.302906   
     15. B(C  14,C  13)                  1.5256         0.379717   
     16. B(C  15,C  14)                  1.5351         0.366682   
     17. B(C  15,P   0)                  1.8895         0.335228   
     18. B(C  16,C  13)                  1.5311         0.372066   
     19. B(C  17,C  16)                  1.5369         0.364206   
     20. B(C  18,C  17)                  1.5281         0.376241   
     21. B(C  18,C  15)                  1.5413         0.358399   
     22. B(H  20,C   1)                  1.1100         0.334625   
     23. B(H  21,C   2)                  1.1101         0.334426   
     24. B(H  22,C   5)                  1.1096         0.335099   
     25. B(H  23,C   6)                  1.1093         0.335402   
     26. B(H  24,C   3)                  1.1105         0.333935   
     27. B(H  25,C  14)                  1.1081         0.336951   
     28. B(H  26,C  13)                  1.1098         0.334851   
     29. B(H  27,C  16)                  1.1113         0.333054   
     30. B(H  28,C  17)                  1.1108         0.333632   
     31. B(H  29,C  18)                  1.1082         0.336757   
     32. B(H  30,C  11)                  1.1105         0.333971   
     33. B(H  31,C  10)                  1.1090         0.335839   
     34. B(H  32,C   9)                  1.1104         0.334098   
     35. B(H  33,C   8)                  1.1103         0.334237   
     36. B(H  34,C   7)                  1.1031         0.343183   
     37. B(C  35,P   0)                  1.9146         0.305717   
     38. B(C  36,C  35)                  1.5274         0.377218   
     39. B(C  37,C  36)                  1.5107         0.400984   
     40. B(C  38,C  37)                  1.5099         0.402177   
     41. B(C  39,C  38)                  1.5181         0.390301   
     42. B(C  39,H  19)                  1.1079         0.337225   
     43. B(C  40,C  35)                  1.5392         0.361190   
     44. B(C  41,C  40)                  1.5193         0.388566   
     45. B(C  42,C  41)                  1.5191         0.388901   
     46. B(C  43,C  42)                  1.5216         0.385251   
     47. B(N  44,C  39)                  1.4608         0.431412   
     48. B(N  44,C  36)                  1.4668         0.422006   
     49. B(N  45,C  43)                  1.4557         0.439615   
     50. B(N  45,C  40)                  1.4604         0.432048   
     51. B(B  46,N  45)                  1.5580         0.349713   
     52. B(B  46,N  44)                  1.5588         0.348650   
     53. B(F  47,B  46)                  1.4598         0.466044   
     54. B(F  48,B  46)                  1.4587         0.467973   
     55. B(H  49,C  42)                  1.1092         0.335569   
     56. B(H  50,C  43)                  1.1071         0.338132   
     57. B(H  51,C  41)                  1.1090         0.335794   
     58. B(H  52,C  37)                  1.1076         0.337520   
     59. B(H  53,C  38)                  1.1092         0.335620   
     60. A(C   4,P   0,C  12)           80.9713         0.389224   
     61. A(C  15,P   0,C  35)           86.1639         0.390152   
     62. A(C   4,P   0,C  35)          142.4783         0.389852   
     63. A(C   4,P   0,C  15)           72.5081         0.396193   
     64. A(C  12,P   0,C  15)          145.5770         0.389523   
     65. A(C  12,P   0,C  35)          102.9263         0.383320   
     66. A(C   5,C   1,H  20)          109.7192         0.320783   
     67. A(C   2,C   1,C   5)          109.9674         0.364779   
     68. A(C   2,C   1,H  20)          109.0947         0.321306   
     69. A(C   3,C   2,H  21)          109.3957         0.321400   
     70. A(C   1,C   2,C   3)          111.6568         0.365550   
     71. A(C   1,C   2,H  21)          110.7795         0.321275   
     72. A(C   2,C   3,C   4)          113.5618         0.361662   
     73. A(C   4,C   3,H  24)          111.1707         0.317933   
     74. A(C   2,C   3,H  24)          108.5729         0.321323   
     75. A(P   0,C   4,C   3)          117.4701         0.376150   
     76. A(P   0,C   4,C   6)          125.0062         0.377142   
     77. A(C   3,C   4,C   6)          116.0111         0.358611   
     78. A(C   1,C   5,C   6)          112.0999         0.364241   
     79. A(C   6,C   5,H  22)          109.4034         0.320927   
     80. A(C   1,C   5,H  22)          109.9798         0.320858   
     81. A(C   4,C   6,H  23)          111.4114         0.318952   
     82. A(C   5,C   6,H  23)          109.6715         0.320974   
     83. A(C   4,C   6,C   5)          112.7855         0.361922   
     84. A(C  12,C   7,H  34)          118.5515         0.316762   
     85. A(C   8,C   7,H  34)          105.4653         0.321022   
     86. A(C   8,C   7,C  12)          110.3274         0.356586   
     87. A(C   7,C   8,H  33)          111.1031         0.319639   
     88. A(C   9,C   8,H  33)          109.0160         0.320600   
     89. A(C   7,C   8,C   9)          111.2157         0.362727   
     90. A(C  10,C   9,H  32)          110.2607         0.320811   
     91. A(C   8,C   9,H  32)          110.2141         0.320578   
     92. A(C   8,C   9,C  10)          111.4879         0.364143   
     93. A(C   9,C  10,H  31)          111.4221         0.321083   
     94. A(C  11,C  10,H  31)          111.2116         0.320558   
     95. A(C   9,C  10,C  11)          110.7065         0.363796   
     96. A(C  10,C  11,C  12)          110.5718         0.362763   
     97. A(C  10,C  11,H  30)          114.0834         0.320266   
     98. A(C  12,C  11,H  30)          113.9959         0.319919   
     99. A(P   0,C  12,C   7)          122.8311         0.366756   
    100. A(C   7,C  12,C  11)          103.2029         0.356960   
    101. A(P   0,C  12,C  11)          117.6724         0.372346   
    102. A(C  14,C  13,H  26)          111.6779         0.321334   
    103. A(C  14,C  13,C  16)          110.8023         0.364114   
    104. A(C  16,C  13,H  26)          110.4730         0.320267   
    105. A(C  13,C  14,C  15)          111.7703         0.363208   
    106. A(C  15,C  14,H  25)          112.1684         0.319831   
    107. A(C  13,C  14,H  25)          110.9155         0.321664   
    108. A(C  14,C  15,C  18)          117.0915         0.359645   
    109. A(P   0,C  15,C  18)          123.3192         0.376739   
    110. A(P   0,C  15,C  14)          117.0836         0.378231   
    111. A(C  17,C  16,H  27)          109.7296         0.318872   
    112. A(C  13,C  16,H  27)          109.3628         0.319985   
    113. A(C  13,C  16,C  17)          115.3907         0.361529   
    114. A(C  16,C  17,C  18)          115.8075         0.362218   
    115. A(C  18,C  17,H  28)          110.4005         0.320660   
    116. A(C  16,C  17,H  28)          110.4562         0.318962   
    117. A(C  15,C  18,C  17)          116.3647         0.361226   
    118. A(C  15,C  18,H  29)          116.5155         0.318611   
    119. A(C  17,C  18,H  29)          114.5568         0.321150   
    120. A(P   0,C  35,C  36)          124.5491         0.374083   
    121. A(C  36,C  35,C  40)          110.6104         0.361865   
    122. A(P   0,C  35,C  40)          123.2525         0.371295   
    123. A(C  35,C  36,C  37)          119.4631         0.368397   
    124. A(C  37,C  36,N  44)          107.8062         0.373224   
    125. A(C  35,C  36,N  44)          119.1601         0.369321   
    126. A(C  36,C  37,C  38)           97.4007         0.372478   
    127. A(C  38,C  37,H  52)          111.8883         0.324800   
    128. A(C  36,C  37,H  52)          112.9455         0.324641   
    129. A(C  39,C  38,H  53)          114.0832         0.322906   
    130. A(C  37,C  38,H  53)          115.3960         0.324499   
    131. A(C  37,C  38,C  39)          102.4504         0.370750   
    132. A(C  38,C  39,N  44)          107.9149         0.372905   
    133. A(H  19,C  39,N  44)          112.2970         0.326556   
    134. A(H  19,C  39,C  38)          112.6860         0.323159   
    135. A(C  41,C  40,N  45)          108.4566         0.372714   
    136. A(C  35,C  40,N  45)          116.8699         0.368061   
    137. A(C  35,C  40,C  41)          122.2625         0.363701   
    138. A(C  40,C  41,H  51)          109.7939         0.322698   
    139. A(C  42,C  41,H  51)          108.9408         0.322744   
    140. A(C  40,C  41,C  42)          102.1462         0.368336   
    141. A(C  43,C  42,H  49)          107.0533         0.322210   
    142. A(C  41,C  42,H  49)          111.0666         0.322708   
    143. A(C  41,C  42,C  43)          104.7277         0.367795   
    144. A(N  45,C  43,H  50)          119.0016         0.327716   
    145. A(C  42,C  43,H  50)          121.1623         0.322612   
    146. A(C  42,C  43,N  45)          110.0843         0.373279   
    147. A(C  39,N  44,B  46)          112.3364         0.366499   
    148. A(C  36,N  44,B  46)          116.3775         0.365118   
    149. A(C  36,N  44,C  39)          103.4358         0.375591   
    150. A(C  43,N  45,B  46)          115.6314         0.367877   
    151. A(C  40,N  45,B  46)          113.6543         0.366783   
    152. A(C  40,N  45,C  43)          101.3264         0.378351   
    153. A(F  47,B  46,F  48)          106.5393         0.390867   
    154. A(N  45,B  46,F  48)          111.5752         0.373418   
    155. A(N  44,B  46,F  48)          106.5494         0.373222   
    156. A(N  45,B  46,F  47)          107.8074         0.373152   
    157. A(N  44,B  46,F  47)          113.5635         0.372957   
    158. A(N  44,B  46,N  45)          110.7787         0.356543   
    159. D(H  21,C   2,C   1,H  20)     58.0144         0.010000   
    160. D(H  21,C   2,C   1,C   5)    178.3901         0.010000   
    161. D(C   3,C   2,C   1,C   5)    -59.4121         0.010000   
    162. D(C   3,C   2,C   1,H  20)   -179.7877         0.010000   
    163. D(C   4,C   3,C   2,H  21)    172.5818         0.010028   
    164. D(H  24,C   3,C   2,C   1)    173.7988         0.010028   
    165. D(H  24,C   3,C   2,H  21)    -63.2118         0.010028   
    166. D(C   4,C   3,C   2,C   1)     49.5925         0.010028   
    167. D(C   6,C   4,P   0,C  15)    -81.6646         0.010000   
    168. D(P   0,C   4,C   3,C   2)    152.8132         0.010000   
    169. D(C   6,C   4,P   0,C  12)     76.1256         0.010000   
    170. D(C   3,C   4,P   0,C  12)   -118.5071         0.010000   
    171. D(C   3,C   4,P   0,C  15)     83.7028         0.010000   
    172. D(C   3,C   4,P   0,C  35)    141.9973         0.010000   
    173. D(C   6,C   4,C   3,C   2)    -40.4980         0.010000   
    174. D(P   0,C   4,C   3,H  24)     30.0257         0.010000   
    175. D(C   6,C   4,C   3,H  24)   -163.2855         0.010000   
    176. D(H  22,C   5,C   1,H  20)    -58.0326         0.010000   
    177. D(H  22,C   5,C   1,C   2)   -178.0300         0.010000   
    178. D(C   6,C   5,C   1,C   2)     60.0217         0.010000   
    179. D(C   6,C   5,C   1,H  20)   -179.9808         0.010000   
    180. D(H  23,C   6,C   5,H  22)     62.7896         0.010000   
    181. D(C   4,C   6,C   5,H  22)   -172.4132         0.010000   
    182. D(C   4,C   6,C   5,C   1)    -50.1363         0.010000   
    183. D(H  23,C   6,C   5,C   1)   -174.9335         0.010000   
    184. D(H  23,C   6,C   4,P   0)    -30.1105         0.010000   
    185. D(H  23,C   6,C   4,C   3)    164.3315         0.010000   
    186. D(C   5,C   6,C   4,C   3)     40.4894         0.010000   
    187. D(C   5,C   6,C   4,P   0)   -153.9526         0.010000   
    188. D(C   9,C   8,C   7,C  12)    -59.4600         0.010000   
    189. D(C   9,C   8,C   7,H  34)    171.3913         0.010000   
    190. D(H  33,C   8,C   7,H  34)     49.7594         0.010000   
    191. D(H  33,C   8,C   7,C  12)    178.9081         0.010000   
    192. D(H  32,C   9,C   8,C   7)    173.5901         0.010000   
    193. D(H  32,C   9,C   8,H  33)    -63.5693         0.010000   
    194. D(C  10,C   9,C   8,H  33)    173.6424         0.010000   
    195. D(C  10,C   9,C   8,C   7)     50.8018         0.010000   
    196. D(H  31,C  10,C   9,H  32)     61.5739         0.010000   
    197. D(H  31,C  10,C   9,C   8)   -175.6645         0.010000   
    198. D(C  11,C  10,C   9,H  32)   -174.1065         0.010000   
    199. D(C  11,C  10,C   9,C   8)    -51.3449         0.010000   
    200. D(H  30,C  11,C  10,H  31)     55.9152         0.010000   
    201. D(H  30,C  11,C  10,C   9)    -68.5245         0.010000   
    202. D(C  12,C  11,C  10,H  31)   -174.0285         0.010000   
    203. D(C  12,C  11,C  10,C   9)     61.5318         0.010000   
    204. D(C   7,C  12,C  11,H  30)     63.8207         0.010000   
    205. D(C   7,C  12,C  11,C  10)    -66.2821         0.010000   
    206. D(P   0,C  12,C  11,H  30)    -74.9289         0.010000   
    207. D(C  11,C  12,C   7,H  34)   -173.1541         0.010000   
    208. D(C  11,C  12,C   7,C   8)     65.1569         0.010000   
    209. D(P   0,C  12,C   7,H  34)    -37.1761         0.010000   
    210. D(P   0,C  12,C   7,C   8)   -158.8650         0.010000   
    211. D(C  11,C  12,P   0,C  15)   -136.2837         0.010000   
    212. D(P   0,C  12,C  11,C  10)    154.9684         0.010000   
    213. D(C  11,C  12,P   0,C   4)   -175.9082         0.010000   
    214. D(C   7,C  12,P   0,C  35)   -164.1438         0.010000   
    215. D(C   7,C  12,P   0,C  15)     93.5298         0.010000   
    216. D(C   7,C  12,P   0,C   4)     53.9052         0.010000   
    217. D(H  25,C  14,C  13,H  26)    -51.2052         0.010000   
    218. D(H  25,C  14,C  13,C  16)   -174.8228         0.010000   
    219. D(C  15,C  14,C  13,H  26)   -177.1920         0.010000   
    220. D(C  15,C  14,C  13,C  16)     59.1905         0.010000   
    221. D(C  14,C  15,P   0,C   4)   -108.2359         0.010000   
    222. D(C  18,C  15,C  14,C  13)    -23.3027         0.010000   
    223. D(P   0,C  15,C  14,H  25)     48.7361         0.010000   
    224. D(P   0,C  15,C  14,C  13)    174.0331         0.010000   
    225. D(C  18,C  15,P   0,C  12)     48.9439         0.010000   
    226. D(C  18,C  15,P   0,C   4)     90.2735         0.010000   
    227. D(C  14,C  15,P   0,C  35)    103.0514         0.010000   
    228. D(C  18,C  15,C  14,H  25)   -148.5996         0.010000   
    229. D(C  14,C  15,P   0,C  12)   -149.5655         0.010000   
    230. D(H  27,C  16,C  13,C  14)     75.3930         0.010000   
    231. D(C  17,C  16,C  13,H  26)   -173.1691         0.010000   
    232. D(H  27,C  16,C  13,H  26)    -48.9140         0.010000   
    233. D(C  17,C  16,C  13,C  14)    -48.8621         0.010000   
    234. D(H  28,C  17,C  16,H  27)      4.5395         0.010000   
    235. D(H  28,C  17,C  16,C  13)    128.6027         0.010000   
    236. D(C  18,C  17,C  16,H  27)   -121.8763         0.010000   
    237. D(C  18,C  17,C  16,C  13)      2.1869         0.010000   
    238. D(H  29,C  18,C  17,C  16)    174.6380         0.010000   
    239. D(C  15,C  18,C  17,H  28)    -92.5463         0.010000   
    240. D(C  15,C  18,C  17,C  16)     33.8977         0.010000   
    241. D(H  29,C  18,C  15,C  14)   -163.0334         0.010000   
    242. D(H  29,C  18,C  15,P   0)     -1.5442         0.010000   
    243. D(C  17,C  18,C  15,C  14)    -23.0686         0.010000   
    244. D(H  29,C  18,C  17,H  28)     48.1941         0.010000   
    245. D(C  17,C  18,C  15,P   0)    138.4207         0.010000   
    246. D(C  40,C  35,P   0,C  12)    170.9600         0.010000   
    247. D(C  40,C  35,P   0,C   4)    -97.0620         0.010000   
    248. D(C  36,C  35,P   0,C  15)    153.0848         0.010000   
    249. D(C  36,C  35,P   0,C  12)      6.6927         0.010000   
    250. D(C  36,C  35,P   0,C   4)     98.6707         0.010000   
    251. D(N  44,C  36,C  35,C  40)    -32.8773         0.010000   
    252. D(N  44,C  36,C  35,P   0)    133.1028         0.010000   
    253. D(C  37,C  36,C  35,C  40)    102.9632         0.010000   
    254. D(C  37,C  36,C  35,P   0)    -91.0567         0.010000   
    255. D(H  52,C  37,C  36,N  44)   -161.2033         0.011053   
    256. D(H  52,C  37,C  36,C  35)     58.5121         0.011053   
    257. D(C  38,C  37,C  36,N  44)    -43.6082         0.011053   
    258. D(C  38,C  37,C  36,C  35)    176.1071         0.011053   
    259. D(H  53,C  38,C  37,H  52)    -74.7843         0.011115   
    260. D(H  53,C  38,C  37,C  36)    166.8006         0.011115   
    261. D(C  39,C  38,C  37,H  52)    160.6458         0.011115   
    262. D(C  39,C  38,C  37,C  36)     42.2307         0.011115   
    263. D(N  44,C  39,C  38,H  53)   -154.7328         0.010505   
    264. D(N  44,C  39,C  38,C  37)    -29.2990         0.010505   
    265. D(H  19,C  39,C  38,H  53)     80.7040         0.010505   
    266. D(H  19,C  39,C  38,C  37)   -153.8623         0.010505   
    267. D(N  45,C  40,C  35,C  36)    -16.6652         0.010000   
    268. D(N  45,C  40,C  35,P   0)    177.1389         0.010000   
    269. D(C  41,C  40,C  35,C  36)    121.0268         0.010000   
    270. D(C  41,C  40,C  35,P   0)    -45.1691         0.010000   
    271. D(H  51,C  41,C  40,N  45)     82.8452         0.010418   
    272. D(H  51,C  41,C  40,C  35)    -57.8828         0.010418   
    273. D(C  42,C  41,C  40,N  45)    -32.6435         0.010418   
    274. D(C  42,C  41,C  40,C  35)   -173.3715         0.010418   
    275. D(H  49,C  42,C  41,H  51)    142.8654         0.010435   
    276. D(H  49,C  42,C  41,C  40)   -101.0255         0.010435   
    277. D(C  43,C  42,C  41,H  51)   -101.9082         0.010435   
    278. D(C  43,C  42,C  41,C  40)     14.2008         0.010435   
    279. D(H  50,C  43,C  42,H  49)    -88.5354         0.010253   
    280. D(H  50,C  43,C  42,C  41)    153.4700         0.010253   
    281. D(N  45,C  43,C  42,H  49)    125.9384         0.010253   
    282. D(N  45,C  43,C  42,C  41)      7.9437         0.010253   
    283. D(B  46,N  44,C  36,C  35)     43.1840         0.014034   
    284. D(C  39,N  44,C  36,C  37)     26.4429         0.014034   
    285. D(C  39,N  44,C  36,C  35)    166.8685         0.014034   
    286. D(B  46,N  44,C  39,C  38)    128.4450         0.014659   
    287. D(B  46,N  44,C  39,H  19)   -106.7590         0.014659   
    288. D(C  36,N  44,C  39,C  38)      2.1464         0.014659   
    289. D(C  36,N  44,C  39,H  19)    126.9424         0.014659   
    290. D(B  46,N  44,C  36,C  37)    -97.2416         0.014034   
    291. D(B  46,N  45,C  43,H  50)    -50.3291         0.015219   
    292. D(B  46,N  45,C  43,C  42)     96.0431         0.015219   
    293. D(C  40,N  45,C  43,H  50)   -173.6926         0.015219   
    294. D(C  40,N  45,C  43,C  42)    -27.3205         0.015219   
    295. D(B  46,N  45,C  40,C  41)    -87.5065         0.014702   
    296. D(B  46,N  45,C  40,C  35)     55.6193         0.014702   
    297. D(C  43,N  45,C  40,C  41)     37.2000         0.014702   
    298. D(C  43,N  45,C  40,C  35)   -179.6742         0.014702   
    299. D(F  48,B  46,N  45,C  40)     74.8583         0.010000   
    300. D(F  47,B  46,N  45,C  43)     74.8946         0.010000   
    301. D(F  47,B  46,N  45,C  40)   -168.4917         0.010000   
    302. D(N  44,B  46,N  45,C  43)   -160.2876         0.010000   
    303. D(N  44,B  46,N  45,C  40)    -43.6739         0.010000   
    304. D(F  48,B  46,N  44,C  36)   -125.1473         0.010000   
    305. D(F  47,B  46,N  44,C  39)     -1.0786         0.010000   
    306. D(F  47,B  46,N  44,C  36)    117.8786         0.010000   
    307. D(N  45,B  46,N  44,C  39)   -122.5674         0.010000   
    308. D(N  45,B  46,N  44,C  36)     -3.6102         0.010000   
    -----------------------------------------------------------------

Number of atoms                         .... 54
Number of degrees of freedom            .... 308


         *************************************************************
         *                GEOMETRY OPTIMIZATION CYCLE   1            *
         *************************************************************
---------------------------------
CARTESIAN COORDINATES (ANGSTROEM)
---------------------------------
  P    -6.375657   10.961615    0.925216
  C    -7.481001   15.524319    2.108062
  C    -7.212047   15.122852    0.661095
  C    -6.331683   13.880686    0.576074
  C    -6.817502   12.718473    1.466419
  C    -8.178569   14.381955    2.845558
  C    -7.334862   13.108262    2.861804
  C    -9.172972   11.814907    0.042830
  C   -10.612116   11.799043    0.573276
  C   -11.223543   10.401386    0.472488
  C   -10.308233    9.344457    1.088009
  C    -8.891478    9.458900    0.520738
  C    -8.286669   10.826488    0.854692
  C    -2.582348   12.684471    1.919791
  C    -3.644264   12.005098    1.060650
  C    -4.896006   11.652014    1.876071
  C    -2.159145   11.778110    3.078964
  C    -3.311285   11.162806    3.888951
  C    -4.720198   11.494579    3.399185
  H    -7.905498    5.201558    1.289483
  H    -8.126314   16.427346    2.120385
  H    -6.731141   15.954350    0.104553
  H    -8.406166   14.686675    3.887925
  H    -7.913834   12.282686    3.324247
  H    -6.261600   13.568931   -0.487497
  H    -3.884817   12.619022    0.170095
  H    -1.698812   12.984054    1.318754
  H    -1.498725   10.971606    2.693892
  H    -3.180592   10.063191    3.976140
  H    -5.531624   10.966923    3.938973
  H    -8.808098    9.177600   -0.550308
  H   -10.716074    8.323033    0.945848
  H   -12.218872   10.381644    0.964343
  H   -11.251727   12.514816    0.015327
  H    -8.882980   12.878724    0.010844
  C    -5.850080    9.250438    1.604339
  C    -6.802722    8.077951    1.829216
  C    -7.472357    7.911823    3.173197
  C    -8.332501    6.723272    2.816335
  C    -7.379867    5.860710    2.008230
  C    -4.386385    8.777530    1.659314
  C    -3.431679    8.957090    0.491180
  C    -2.204115    8.196067    0.961774
  C    -2.689128    7.374625    2.147240
  N    -6.421122    6.745038    1.350387
  N    -4.136887    7.471730    2.263839
  B    -4.945180    6.313642    1.605997
  F    -4.820725    5.138977    2.463716
  F    -4.390537    5.941557    0.309212
  H    -1.426853    8.889609    1.342826
  H    -2.190078    6.427885    2.430752
  H    -3.841999    8.456797   -0.409529
  H    -8.081581    8.790088    3.463604
  H    -8.799771    6.199300    3.675030

----------------------------
CARTESIAN COORDINATES (A.U.)
----------------------------
  NO LB    ZA    FRAG    MASS        X           Y           Z
   0 P  15.0000    0    30.974  -12.048246   20.714450    1.748404
   1 C   6.0000    0    12.011  -14.137044   29.336711    3.983659
   2 C   6.0000    0    12.011  -13.628794   28.578048    1.249288
   3 C   6.0000    0    12.011  -11.965147   26.230695    1.088622
   4 C   6.0000    0    12.011  -12.883212   24.034430    2.771130
   5 C   6.0000    0    12.011  -15.455256   27.177956    5.377325
   6 C   6.0000    0    12.011  -13.860881   24.771025    5.408025
   7 C   6.0000    0    12.011  -17.334405   22.326938    0.080936
   8 C   6.0000    0    12.011  -20.053993   22.296959    1.083334
   9 C   6.0000    0    12.011  -21.209423   19.655770    0.892872
  10 C   6.0000    0    12.011  -19.479738   17.658464    2.056039
  11 C   6.0000    0    12.011  -16.802459   17.874730    0.984052
  12 C   6.0000    0    12.011  -15.659535   20.459097    1.615133
  13 C   6.0000    0    12.011   -4.879931   23.970176    3.627879
  14 C   6.0000    0    12.011   -6.886661   22.686347    2.004338
  15 C   6.0000    0    12.011   -9.252111   22.019115    3.545260
  16 C   6.0000    0    12.011   -4.080193   22.257402    5.818398
  17 C   6.0000    0    12.011   -6.257422   21.094646    7.349052
  18 C   6.0000    0    12.011   -8.919882   21.721606    6.423528
  19 H   1.0000    0     1.008  -14.939227    9.829520    2.436769
  20 H   1.0000    0     1.008  -15.356508   31.043184    4.006946
  21 H   1.0000    0     1.008  -12.720014   30.149352    0.197576
  22 H   1.0000    0     1.008  -15.885352   27.753793    7.347113
  23 H   1.0000    0     1.008  -14.954979   23.210912    6.281916
  24 H   1.0000    0     1.008  -11.832710   25.641563   -0.921236
  25 H   1.0000    0     1.008   -7.341241   23.846495    0.321432
  26 H   1.0000    0     1.008   -3.210290   24.536306    2.492083
  27 H   1.0000    0     1.008   -2.832180   20.733330    5.090718
  28 H   1.0000    0     1.008   -6.010448   19.016674    7.513815
  29 H   1.0000    0     1.008  -10.453255   20.724480    7.443580
  30 H   1.0000    0     1.008  -16.644893   17.343150   -1.039932
  31 H   1.0000    0     1.008  -20.250446   15.728252    1.787393
  32 H   1.0000    0     1.008  -23.090322   19.618463    1.822344
  33 H   1.0000    0     1.008  -21.262683   23.649574    0.028963
  34 H   1.0000    0     1.008  -16.786400   24.337261    0.020492
  35 C   6.0000    0    12.011  -11.055050   17.480794    3.031761
  36 C   6.0000    0    12.011  -12.855282   15.265115    3.456717
  37 C   6.0000    0    12.011  -14.120709   14.951178    5.996473
  38 C   6.0000    0    12.011  -15.746145   12.705142    5.322101
  39 C   6.0000    0    12.011  -13.945928   11.075136    3.795004
  40 C   6.0000    0    12.011   -8.289067   16.587127    3.135649
  41 C   6.0000    0    12.011   -6.484934   16.926446    0.928195
  42 C   6.0000    0    12.011   -4.165174   15.488321    1.817489
  43 C   6.0000    0    12.011   -5.081716   13.936021    4.057695
  44 N   7.0000    0    14.007  -12.134163   12.746274    2.551861
  45 N   7.0000    0    14.007   -7.817584   14.119523    4.278035
  46 B   5.0000    0    10.810   -9.345036   11.931054    3.034894
  47 F   9.0000    0    18.998   -9.109851    9.711259    4.655748
  48 F   9.0000    0    18.998   -8.296913   11.227915    0.584325
  49 H   1.0000    0     1.008   -2.696362   16.798926    2.537573
  50 H   1.0000    0     1.008   -4.138648   12.146942    4.593455
  51 H   1.0000    0     1.008   -7.260326   15.981030   -0.773898
  52 H   1.0000    0     1.008  -15.271975   16.610858    6.545262
  53 H   1.0000    0     1.008  -16.629158   11.714979    6.944800

      -----------------------------------------------------------      
     |                   =====================                   |     
     |                           x T B                           |     
     |                   =====================                   |     
     |                         S. Grimme                         |     
     |          Mulliken Center for Theoretical Chemistry        |     
     |                    University of Bonn                     |     
      -----------------------------------------------------------      

   * xtb version 6.7.1 (edcfbbe) compiled by 'albert@albert-system' on 2024-07-22

   xtb is free software: you can redistribute it and/or modify it under
   the terms of the GNU Lesser General Public License as published by
   the Free Software Foundation, either version 3 of the License, or
   (at your option) any later version.
   
   xtb is distributed in the hope that it will be useful,
   but WITHOUT ANY WARRANTY; without even the implied warranty of
   MERCHANTABILITY or FITNESS FOR A PARTICULAR PURPOSE.  See the
   GNU Lesser General Public License for more details.
   
   Cite this work as:
   * C. Bannwarth, E. Caldeweyher, S. Ehlert, A. Hansen, P. Pracht,
     J. Seibert, S. Spicher, S. Grimme, WIREs Comput. Mol. Sci., 2020, 11,
     e01493. DOI: 10.1002/wcms.1493
   
   for GFN2-xTB:
   * C. Bannwarth, S. Ehlert and S. Grimme., J. Chem. Theory Comput., 2019,
     15, 1652-1671. DOI: 10.1021/acs.jctc.8b01176
   for GFN1-xTB:
   * S. Grimme, C. Bannwarth, P. Shushkov, J. Chem. Theory Comput., 2017,
     13, 1989-2009. DOI: 10.1021/acs.jctc.7b00118
   for GFN0-xTB:
   * P. Pracht, E. Caldeweyher, S. Ehlert, S. Grimme, ChemRxiv, 2019, preprint.
     DOI: 10.26434/chemrxiv.8326202.v1
   for GFN-FF:
   * S. Spicher and S. Grimme, Angew. Chem. Int. Ed., 2020, 59, 15665-15673.
     DOI: 10.1002/anie.202004239
   
   for ALPB and GBSA implicit solvation:
   * S. Ehlert, M. Stahn, S. Spicher, S. Grimme, J. Chem. Theory Comput.,
     2021, 17, 4250-4261. DOI: 10.1021/acs.jctc.1c00471
   
   for ddCOSMO and CPCM-X implicit solvation:
   * M. Stahn, S. Ehlert, S. Grimme, J. Phys. Chem. A,
     2023, XX, XXXX-XXXX. DOI: 10.1021/acs.jpca.3c04382
   
   for DFT-D4:
   * E. Caldeweyher, C. Bannwarth and S. Grimme, J. Chem. Phys., 2017,
     147, 034112. DOI: 10.1063/1.4993215
   * E. Caldeweyher, S. Ehlert, A. Hansen, H. Neugebauer, S. Spicher,
     C. Bannwarth and S. Grimme, J. Chem. Phys., 2019, 150, 154122.
     DOI: 10.1063/1.5090222
   * E. Caldeweyher, J.-M. Mewes, S. Ehlert and S. Grimme, Phys. Chem. Chem. Phys.
     2020, 22, 8499-8512. DOI: 10.1039/D0CP00502A
   
   for sTDA-xTB:
   * S. Grimme and C. Bannwarth, J. Chem. Phys., 2016, 145, 054103.
     DOI: 10.1063/1.4959605
   
   in the mass-spec context:
   * V. Asgeirsson, C. Bauer and S. Grimme, Chem. Sci., 2017, 8, 4879.
     DOI: 10.1039/c7sc00601b
   * J. Koopman and S. Grimme, ACS Omega 2019, 4, 12, 15120-15133.
     DOI: 10.1021/acsomega.9b02011
   
   for metadynamics refer to:
   * S. Grimme, J. Chem. Theory Comput., 2019, 155, 2847-2862
     DOI: 10.1021/acs.jctc.9b00143
   
   for SPH calculations refer to:
   * S. Spicher and S. Grimme, J. Chem. Theory Comput., 2021, 17, 1701-1714
     DOI: 10.1021/acs.jctc.0c01306
   
   for ONIOM refer to:
   * C. Plett, A. Katbashev, S. Ehlert, S. Grimme, M. Bursch,
     Phys. Chem. Chem. Phys., 2023, 25, 17860-17868. DOI: 10.1039/D3CP02178E
   
   for DIPRO refer to:
   * J. Kohn, N. Gildemeister, S. Grimme, D. Fazzi, A. Hansen,
     J. Chem. Phys., 2023, just accepted.
   
   for PTB refer to:
   * S. Grimme, M. Mueller, A. Hansen, J. Chem. Phys., 2023, 158, 124111.
     DOI: 10.1063/5.0137838
   
   with help from (in alphabetical order)
   P. Atkinson, C. Bannwarth, F. Bohle, G. Brandenburg, E. Caldeweyher
   M. Checinski, S. Dohm, S. Ehlert, S. Ehrlich, I. Gerasimov, C. Hölzer
   A. Katbashev, J. Kohn, J. Koopman, C. Lavigne, S. Lehtola, F. März, M. Müller,
   F. Musil, H. Neugebauer, J. Pisarek, C. Plett, P. Pracht, F. Pultar,
   J. Seibert, P. Shushkov, S. Spicher, M. Stahn, M. Steiner, T. Strunk,
   J. Stückrath, T. Rose, and J. Unsleber
   
 * started run on 2026/01/02 at 05:56:27.331     
   ID    Z sym.   atoms
    1   15 P      1
    2    6 C      2-19, 36-44
    3    1 H      20-35, 50-54
    4    7 N      45, 46
    5    5 B      47
    6    9 F      48, 49

           -------------------------------------------------
          |                Calculation Setup                |
           -------------------------------------------------

          program call               : otool_xtb TPP_BODIPY_Opt_XTB.xyz --grad -c 1 -u 0 -P 1 --namespace TPP_BODIPY_Opt --input TPP_BODIPY_Opt_XTB.input.tmp --acc 0.200000
          calculation namespace      : TPP_BODIPY_Opt
          coordinate file            : TPP_BODIPY_Opt_XTB.xyz
          omp threads                :                     1


           -------------------------------------------------
          |                 G F N 2 - x T B                 |
           -------------------------------------------------

        Reference                      10.1021/acs.jctc.8b01176
      * Hamiltonian:
        H0-scaling (s, p, d)           1.850000    2.230000    2.230000
        zeta-weighting                 0.500000
      * Dispersion:
        s8                             2.700000
        a1                             0.520000
        a2                             5.000000
        s9                             5.000000
      * Repulsion:
        kExp                           1.500000    1.000000
        rExp                           1.000000
      * Coulomb:
        alpha                          2.000000
        third order                    shell-resolved
        anisotropic                    true
        a3                             3.000000
        a5                             4.000000
        cn-shift                       1.200000
        cn-exp                         4.000000
        max-rad                        5.000000


          ...................................................
          :                      SETUP                      :
          :.................................................:
          :  # basis functions                 159          :
          :  # atomic orbitals                 158          :
          :  # shells                           88          :
          :  # electrons                       160          :
          :  max. iterations                   250          :
          :  Hamiltonian                  GFN2-xTB          :
          :  restarted?                      false          :
          :  GBSA solvation                  false          :
          :  PC potential                    false          :
          :  electronic temp.          300.0000000     K    :
          :  accuracy                    0.2000000          :
          :  -> integral cutoff          0.3198970E+02      :
          :  -> integral neglect         0.2000000E-08      :
          :  -> SCF convergence          0.2000000E-06 Eh   :
          :  -> wf. convergence          0.2000000E-04 e    :
          :  Broyden damping             0.4000000          :
          :  net charge                          1          :
          :  unpaired electrons                  0          :
          ...................................................

 iter      E             dE          RMSdq      gap      omega  full diag
   1    -86.5940653 -0.865941E+02  0.568E+00    0.26       0.0  T
   2    -84.4200965  0.217397E+01  0.513E+00    0.29       1.0  T
   3    -75.7676234  0.865247E+01  0.765E+00    0.23       1.0  T
   4    -84.7602033 -0.899258E+01  0.424E+00    0.03       1.0  T
   5    -86.3681697 -0.160797E+01  0.240E+00    0.29       1.0  T
   6    -86.6267379 -0.258568E+00  0.175E+00    0.36       1.0  T
   7    -86.7923414 -0.165603E+00  0.119E+00    0.36       1.0  T
   8    -86.8640485 -0.717071E-01  0.854E-01    0.31       1.0  T
   9    -86.8470868  0.169617E-01  0.827E-01    0.34       1.0  T
  10    -86.8860261 -0.389392E-01  0.464E-01    0.30       1.0  T
  11    -86.8902971 -0.427099E-02  0.304E-01    0.28       1.0  T
  12    -86.8906998 -0.402753E-03  0.265E-01    0.29       1.0  T
  13    -86.8927255 -0.202568E-02  0.145E-01    0.28       1.0  T
  14    -86.8936743 -0.948768E-03  0.991E-02    0.29       1.0  T
  15    -86.8940303 -0.356010E-03  0.478E-02    0.29       1.0  T
  16    -86.8940919 -0.616742E-04  0.337E-02    0.29       1.0  T
  17    -86.8941574 -0.654844E-04  0.152E-02    0.29       1.0  T
  18    -86.8941637 -0.624634E-05  0.884E-03    0.29       1.5  T
  19    -86.8941670 -0.336364E-05  0.419E-03    0.29       3.2  T
  20    -86.8941673 -0.310312E-06  0.385E-03    0.29       3.5  T
  21    -86.8941682 -0.891939E-06  0.230E-03    0.29       5.9  T
  22    -86.8941683 -0.674481E-07  0.163E-03    0.29       8.3  T
  23    -86.8941684 -0.100476E-06  0.872E-04    0.29      15.6  T
  24    -86.8941684 -0.240381E-07  0.326E-04    0.29      41.7  T
  25    -86.8941684 -0.617459E-08  0.141E-04    0.29      96.4  T
  26    -86.8941684 -0.152710E-08  0.543E-05    0.29     250.5  T

   *** convergence criteria satisfied after 26 iterations ***

         #    Occupation            Energy/Eh            Energy/eV
      -------------------------------------------------------------
         1        2.0000           -0.8454728             -23.0065
       ...           ...                  ...                  ...
        74        2.0000           -0.5183722             -14.1056
        75        2.0000           -0.5132576             -13.9665
        76        2.0000           -0.5117614             -13.9257
        77        2.0000           -0.5032398             -13.6939
        78        2.0000           -0.4977577             -13.5447
        79        2.0000           -0.4953735             -13.4798
        80        1.9931           -0.4893892             -13.3170 (HOMO)
        81        0.0068           -0.4786008             -13.0234 (LUMO)
        82        0.0002           -0.4749819             -12.9249
        83                         -0.4637202             -12.6185
        84                         -0.4412776             -12.0078
        85                         -0.4342355             -11.8162
       ...                                ...                  ...
       158                          1.0810228              29.4161
      -------------------------------------------------------------
                  HL-Gap            0.0107884 Eh            0.2936 eV
             Fermi-level           -0.4840045 Eh          -13.1704 eV

 SCC (total)                   0 d,  0 h,  0 min,  0.314 sec
 SCC setup                      ...        0 min,  0.008 sec (  2.578%)
 Dispersion                     ...        0 min,  0.004 sec (  1.271%)
 classical contributions        ...        0 min,  0.000 sec (  0.151%)
 integral evaluation            ...        0 min,  0.074 sec ( 23.601%)
 iterations                     ...        0 min,  0.184 sec ( 58.497%)
 molecular gradient             ...        0 min,  0.042 sec ( 13.331%)
 printout                       ...        0 min,  0.002 sec (  0.547%)

         :::::::::::::::::::::::::::::::::::::::::::::::::::::
         ::                     SUMMARY                     ::
         :::::::::::::::::::::::::::::::::::::::::::::::::::::
         :: total energy             -86.147992494996 Eh    ::
         :: gradient norm              0.606214313613 Eh/a0 ::
         :: HOMO-LUMO gap              0.293568545072 eV    ::
         ::.................................................::
         :: SCC energy               -86.892104851643 Eh    ::
         :: -> isotropic ES            0.154017126243 Eh    ::
         :: -> anisotropic ES         -0.012707519654 Eh    ::
         :: -> anisotropic XC          0.052840180782 Eh    ::
         :: -> dispersion             -0.076971264734 Eh    ::
         :: repulsion energy           0.744112356647 Eh    ::
         :: add. restraining           0.000000000000 Eh    ::
         :: total charge               1.000000000000 e     ::
         :::::::::::::::::::::::::::::::::::::::::::::::::::::


Property printout bound to 'properties.out'

           -------------------------------------------------
          | TOTAL ENERGY              -86.147992494996 Eh   |
          | GRADIENT NORM               0.606214313613 Eh/α |
          | HOMO-LUMO GAP               0.293568545072 eV   |
           -------------------------------------------------

------------------------------------------------------------------------
 * finished run on 2026/01/02 at 05:56:27.733     
------------------------------------------------------------------------
 total:
 * wall-time:     0 d,  0 h,  0 min,  0.400 sec
 *  cpu-time:     0 d,  0 h,  0 min,  0.327 sec
 * ratio c/w:     0.816 speedup
 SCF:
 * wall-time:     0 d,  0 h,  0 min,  0.315 sec
 *  cpu-time:     0 d,  0 h,  0 min,  0.282 sec
 * ratio c/w:     0.894 speedup


-------------------------   --------------------
FINAL SINGLE POINT ENERGY       -86.147992495000
-------------------------   --------------------


-------------
DIPOLE MOMENT
-------------
                                X             Y             Z
Total Dipole Moment    :    -13.94900      23.02300       2.69100
                        -----------------------------------------
Magnitude (a.u.)       :     27.05318
Magnitude (Debye)      :     68.76372


------------------
CARTESIAN GRADIENT
------------------

   1   P   :    0.000407358    0.015820287   -0.014436059
   2   C   :    0.098218244    0.072115915    0.069608386
   3   C   :   -0.104531029    0.013161485   -0.088391192
   4   C   :    0.114693631    0.018108340   -0.007572772
   5   C   :   -0.029240464   -0.090188978   -0.049405753
   6   C   :   -0.136059028   -0.009203080   -0.020635753
   7   C   :    0.074533057   -0.018372913    0.094774650
   8   C   :    0.032632419    0.001216868   -0.119673611
   9   C   :   -0.034084953    0.071381846    0.110714026
  10   C   :   -0.065000100   -0.019336271   -0.128819039
  11   C   :    0.010938272   -0.025194264    0.102597546
  12   C   :    0.023691447   -0.061015361   -0.028310573
  13   C   :    0.044891371    0.026650656    0.080973127
  14   C   :    0.005131305    0.101326745    0.038747295
  15   C   :    0.017359972   -0.091678371   -0.093320662
  16   C   :   -0.074063719   -0.003841047   -0.050168261
  17   C   :    0.101753445    0.035928410    0.012894005
  18   C   :   -0.008933672   -0.027578029    0.106908607
  19   C   :   -0.029938903    0.036213224    0.062288761
  20   H   :   -0.023346239    0.008813133   -0.019699340
  21   H   :   -0.021975591    0.003653918   -0.009497434
  22   H   :    0.020614981    0.012682537    0.003677206
  23   H   :    0.014625278    0.008087758    0.017900205
  24   H   :   -0.020594219   -0.008642825   -0.004638032
  25   H   :   -0.017635717   -0.003612724   -0.015542460
  26   H   :   -0.008215212    0.022132613   -0.004721202
  27   H   :    0.014977328   -0.008058039   -0.010768681
  28   H   :   -0.011446953   -0.027565066   -0.024107391
  29   H   :    0.002168679   -0.023117833   -0.026437763
  30   H   :   -0.008929926   -0.016508691    0.006812423
  31   H   :   -0.012796125    0.018094962   -0.026576858
  32   H   :   -0.004437060   -0.011320500   -0.008783094
  33   H   :   -0.007511114    0.006421309    0.022785263
  34   H   :   -0.009967687    0.001579378   -0.018461463
  35   H   :   -0.010355780    0.014542640    0.006904637
  36   C   :   -0.022280979    0.061527799   -0.005140648
  37   C   :   -0.054655358   -0.002388884   -0.055941517
  38   C   :    0.082319693    0.005266972    0.115842138
  39   C   :   -0.112541461    0.028365719   -0.044282675
  40   C   :    0.049223719   -0.085753701    0.038608471
  41   C   :    0.074506975    0.024226190    0.056475930
  42   C   :   -0.010682531    0.052603740   -0.053399888
  43   C   :    0.044752386   -0.024428668   -0.081956035
  44   C   :    0.036346955   -0.007313502    0.060210428
  45   N   :    0.052597480   -0.008718112   -0.059545903
  46   N   :   -0.063890290   -0.049235245    0.021341207
  47   B   :   -0.010194273    0.047758761    0.013368770
  48   F   :    0.005636734   -0.038145384    0.024094858
  49   F   :    0.008889421   -0.015858872   -0.032488468
  50   H   :   -0.009512873    0.023731954    0.030316676
  51   H   :    0.009180220   -0.020297574   -0.002889735
  52   H   :   -0.004951415   -0.034441376   -0.001952558
  53   H   :   -0.019171608    0.010014644   -0.011823558
  54   H   :    0.006853911   -0.009612492    0.021543763

Difference to translation invariance:
           :    0.0000000000   -0.0000000000   -0.0000000000

Difference to rotation invariance:
           :   -0.0000000613    0.0000002180   -0.0000002416

Norm of the Cartesian gradient     ...    0.6062143136
RMS gradient                       ...    0.0476286947
MAX gradient                       ...    0.1360590282
------------------------------------------------------------------------------
                         ORCA GEOMETRY RELAXATION STEP
------------------------------------------------------------------------------

Reading the OPT-File                    .... done
Getting information on internals        .... done
Copying old internal coords+grads       .... done
Making the new internal coordinates     .... (2022 redundants) done
Validating the new internal coordinates .... (2022 redundants) done
Calculating the B-matrix                .... done
Calculating the G,G- and P matrices     .... done
Transforming gradient to internals      .... done
Projecting the internal gradient        .... done
Number of atoms                         ....  54
Number of internal coordinates          .... 308
Current Energy                          ....   -86.147992495 Eh
Current gradient norm                   ....     0.606214314 Eh/bohr
Maximum allowed component of the step   ....  0.300
Current trust radius                    ....  0.300
Evaluating the initial hessian          ....  (Almloef) done
Projecting the Hessian                  .... done
Forming the augmented Hessian           .... done
Diagonalizing the augmented Hessian     .... done
Last element of RFO vector              ....  0.806545827
Lowest eigenvalues of augmented Hessian:
 -0.308060565  0.010000000  0.010000000  0.010000000  0.010044485
Length of the computed step             ....  0.732967121
Warning: the length of the step is outside the trust region - taking restricted step instead
The input lambda is                     ....     0.009000
   iter:   5  x=   -0.016007  g= 1325.364055 f(x)=    16.624275
   iter:  10  x=   -0.544032  g=    1.891133 f(x)=     0.421984
   iter:  15  x=   -1.130358  g=    0.125848 f(x)=     0.000015
The output lambda is                    ....    -1.130358 (17 iterations)
The final length of the internal step   ....  0.300000000
Converting the step to Cartesian space:
 Initial RMS(Int)=    0.0170940865
Transforming coordinates:
 Iter   0:  RMS(Cart)=    0.0970445221 RMS(Int)=    0.3583051981
done
Storing new coordinates                 .... done

                                .--------------------.
          ----------------------|Geometry convergence|-------------------------
          Item                value                   Tolerance       Converged
          ---------------------------------------------------------------------
          RMS gradient        0.0247618122            0.0001000000      NO
          MAX gradient        0.1013459924            0.0003000000      NO
          RMS step            0.0170940865            0.0020000000      NO
          MAX step            0.0679898594            0.0040000000      NO
          -------------------------------------------------------------------------
          ........................................................
          Max(Bonds)      0.0360      Max(Angles)    1.85
          Max(Dihed)        1.50      Max(Improp)    0.00
          ---------------------------------------------------------------------

The optimization has not yet converged - more geometry cycles are needed


    ---------------------------------------------------------------------------
                         Redundant Internal Coordinates
                            (Angstroem and degrees)

        Definition                    Value    dE/dq     Step     New-Value
    ----------------------------------------------------------------------------
     1. B(C   2,C   1)                1.5255  0.073428 -0.0257    1.4998   
     2. B(C   3,C   2)                1.5249  0.075990 -0.0266    1.4983   
     3. B(C   4,P   0)                1.8907 -0.003119  0.0011    1.8918   
     4. B(C   4,C   3)                1.5426  0.075933 -0.0270    1.5155   
     5. B(C   5,C   1)                1.5282  0.073681 -0.0259    1.5024   
     6. B(C   6,C   4)                1.5384  0.075799 -0.0269    1.5115   
     7. B(C   6,C   5)                1.5279  0.079449 -0.0279    1.5000   
     8. B(C   8,C   7)                1.5339  0.079427 -0.0280    1.5059   
     9. B(C   9,C   8)                1.5289  0.059249 -0.0209    1.5080   
    10. B(C  10,C   9)                1.5277  0.083514 -0.0294    1.4983   
    11. B(C  11,C  10)                1.5304  0.051267 -0.0181    1.5123   
    12. B(C  12,C  11)                1.5322  0.054530 -0.0192    1.5130   
    13. B(C  12,C   7)                1.5562  0.080386 -0.0289    1.5273   
    14. B(C  12,P   0)                1.9171  0.030520 -0.0113    1.9058   
    15. B(C  14,C  13)                1.5256  0.097215 -0.0341    1.4915   
    16. B(C  15,C  14)                1.5351  0.060408 -0.0213    1.5138   
    17. B(C  15,P   0)                1.8895  0.008011 -0.0029    1.8866   
    18. B(C  16,C  13)                1.5311  0.051917 -0.0183    1.5128   
    19. B(C  17,C  16)                1.5369  0.089341 -0.0317    1.5052   
    20. B(C  18,C  17)                1.5281  0.067361 -0.0237    1.5044   
    21. B(C  18,C  15)                1.5413  0.101346 -0.0360    1.5053   
    22. B(H  20,C   1)                1.1100  0.015643 -0.0057    1.1043   
    23. B(H  21,C   2)                1.1101  0.016586 -0.0060    1.1041   
    24. B(H  22,C   5)                1.1096  0.016037 -0.0058    1.1038   
    25. B(H  23,C   6)                1.1093  0.015247 -0.0055    1.1038   
    26. B(H  24,C   3)                1.1105  0.014786 -0.0053    1.1052   
    27. B(H  25,C  14)                1.1081  0.017840 -0.0064    1.1017   
    28. B(H  26,C  13)                1.1098  0.015581 -0.0056    1.1042   
    29. B(H  27,C  16)                1.1113  0.021556 -0.0078    1.1035   
    30. B(H  28,C  17)                1.1108  0.021065 -0.0076    1.1032   
    31. B(H  29,C  18)                1.1082  0.017716 -0.0064    1.1019   
    32. B(H  30,C  11)                1.1105  0.020088 -0.0073    1.1032   
    33. B(H  31,C  10)                1.1090  0.013184 -0.0048    1.1042   
    34. B(H  32,C   9)                1.1104  0.016711 -0.0060    1.1044   
    35. B(H  33,C   8)                1.1103  0.016038 -0.0058    1.1045   
    36. B(H  34,C   7)                1.1031  0.011102 -0.0040    1.0991   
    37. B(C  35,P   0)                1.9146  0.045512 -0.0168    1.8978   
    38. B(C  36,C  35)                1.5274  0.054371 -0.0191    1.5083   
    39. B(C  37,C  36)                1.5107  0.058087 -0.0200    1.4908   
    40. B(C  38,C  37)                1.5099  0.059292 -0.0204    1.4895   
    41. B(C  39,C  38)                1.5181  0.063730 -0.0223    1.4958   
    42. B(C  39,H  19)                1.1079  0.018613 -0.0067    1.1012   
    43. B(C  40,C  35)                1.5392  0.085541 -0.0304    1.5087   
    44. B(C  41,C  40)                1.5193  0.042863 -0.0148    1.5044   
    45. B(C  42,C  41)                1.5191  0.032819 -0.0114    1.5076   
    46. B(C  43,C  42)                1.5216  0.060780 -0.0213    1.5003   
    47. B(N  44,C  39)                1.4608  0.050924 -0.0174    1.4434   
    48. B(N  44,C  36)                1.4668  0.051346 -0.0175    1.4493   
    49. B(N  45,C  43)                1.4557  0.057192 -0.0193    1.4363   
    50. B(N  45,C  40)                1.4604  0.052128 -0.0178    1.4426   
    51. B(B  46,N  45)                1.5580  0.008006 -0.0027    1.5553   
    52. B(B  46,N  44)                1.5588  0.006984 -0.0024    1.5564   
    53. B(F  47,B  46)                1.4598  0.045332 -0.0150    1.4448   
    54. B(F  48,B  46)                1.4587  0.036308 -0.0120    1.4467   
    55. B(H  49,C  42)                1.1092  0.018587 -0.0067    1.1025   
    56. B(H  50,C  43)                1.1071  0.020755 -0.0075    1.0997   
    57. B(H  51,C  41)                1.1090  0.018955 -0.0068    1.1022   
    58. B(H  52,C  37)                1.1076  0.015386 -0.0055    1.1021   
    59. B(H  53,C  38)                1.1092  0.018332 -0.0066    1.1025   
    60. A(C   4,P   0,C  12)           80.97 -0.037904    1.45     82.42   
    61. A(C  15,P   0,C  35)           86.16 -0.035351    1.37     87.54   
    62. A(C   4,P   0,C  35)          142.48  0.001607   -0.08    142.39   
    63. A(C   4,P   0,C  15)           72.51  0.021980   -0.78     71.73   
    64. A(C  12,P   0,C  15)          145.58 -0.018076    0.77    146.34   
    65. A(C  12,P   0,C  35)          102.93  0.046097   -1.85    101.08   
    66. A(C   5,C   1,H  20)          109.72 -0.008023    0.39    110.11   
    67. A(C   2,C   1,C   5)          109.97 -0.010753    0.50    110.47   
    68. A(C   2,C   1,H  20)          109.09 -0.009642    0.46    109.55   
    69. A(C   3,C   2,H  21)          109.40 -0.007311    0.36    109.75   
    70. A(C   1,C   2,C   3)          111.66 -0.007533    0.35    112.01   
    71. A(C   1,C   2,H  21)          110.78 -0.007498    0.36    111.14   
    72. A(C   2,C   3,C   4)          113.56 -0.002114    0.13    113.70   
    73. A(C   4,C   3,H  24)          111.17 -0.004259    0.21    111.38   
    74. A(C   2,C   3,H  24)          108.57 -0.011237    0.51    109.08   
    75. A(P   0,C   4,C   3)          117.47  0.004032   -0.17    117.30   
    76. A(P   0,C   4,C   6)          125.01  0.001041   -0.05    124.95   
    77. A(C   3,C   4,C   6)          116.01 -0.004671    0.20    116.21   
    78. A(C   1,C   5,C   6)          112.10 -0.006354    0.31    112.41   
    79. A(C   6,C   5,H  22)          109.40 -0.008039    0.38    109.79   
    80. A(C   1,C   5,H  22)          109.98 -0.008340    0.39    110.37   
    81. A(C   4,C   6,H  23)          111.41 -0.003891    0.20    111.61   
    82. A(C   5,C   6,H  23)          109.67 -0.008693    0.40    110.07   
    83. A(C   4,C   6,C   5)          112.79 -0.004949    0.25    113.03   
    84. A(C  12,C   7,H  34)          118.55  0.000245    0.00    118.56   
    85. A(C   8,C   7,H  34)          105.47 -0.018299    0.79    106.25   
    86. A(C   8,C   7,C  12)          110.33  0.002505   -0.03    110.29   
    87. A(C   7,C   8,H  33)          111.10  0.000393    0.05    111.16   
    88. A(C   9,C   8,H  33)          109.02 -0.010972    0.51    109.52   
    89. A(C   7,C   8,C   9)          111.22 -0.017143    0.74    111.95   
    90. A(C  10,C   9,H  32)          110.26 -0.005500    0.28    110.54   
    91. A(C   8,C   9,H  32)          110.21 -0.009103    0.43    110.64   
    92. A(C   8,C   9,C  10)          111.49 -0.007546    0.38    111.87   
    93. A(C   9,C  10,H  31)          111.42 -0.011286    0.50    111.93   
    94. A(C  11,C  10,H  31)          111.21 -0.001737    0.12    111.34   
    95. A(C   9,C  10,C  11)          110.71 -0.006156    0.27    110.98   
    96. A(C  10,C  11,C  12)          110.57  0.007439   -0.24    110.33   
    97. A(C  10,C  11,H  30)          114.08 -0.005595    0.22    114.31   
    98. A(C  12,C  11,H  30)          114.00 -0.007033    0.31    114.30   
    99. A(P   0,C  12,C   7)          122.83 -0.007523    0.30    123.13   
   100. A(C   7,C  12,C  11)          103.20 -0.018629    0.80    104.01   
   101. A(P   0,C  12,C  11)          117.67  0.021983   -0.89    116.78   
   102. A(C  14,C  13,H  26)          111.68 -0.011653    0.54    112.22   
   103. A(C  14,C  13,C  16)          110.80 -0.006621    0.31    111.12   
   104. A(C  16,C  13,H  26)          110.47 -0.004724    0.25    110.72   
   105. A(C  13,C  14,C  15)          111.77 -0.003935    0.20    111.97   
   106. A(C  15,C  14,H  25)          112.17 -0.005391    0.26    112.43   
   107. A(C  13,C  14,H  25)          110.92 -0.007137    0.33    111.25   
   108. A(C  14,C  15,C  18)          117.09 -0.003288    0.15    117.24   
   109. A(P   0,C  15,C  18)          123.32  0.010642   -0.41    122.91   
   110. A(P   0,C  15,C  14)          117.08 -0.007698    0.29    117.37   
   111. A(C  17,C  16,H  27)          109.73 -0.007039    0.34    110.06   
   112. A(C  13,C  16,H  27)          109.36 -0.012144    0.56    109.92   
   113. A(C  13,C  16,C  17)          115.39  0.002359   -0.06    115.33   
   114. A(C  16,C  17,C  18)          115.81 -0.005422    0.23    116.04   
   115. A(C  18,C  17,H  28)          110.40 -0.008383    0.39    110.79   
   116. A(C  16,C  17,H  28)          110.46 -0.004570    0.25    110.71   
   117. A(C  15,C  18,C  17)          116.36 -0.003251    0.15    116.51   
   118. A(C  15,C  18,H  29)          116.52 -0.005382    0.24    116.76   
   119. A(C  17,C  18,H  29)          114.56 -0.001168    0.09    114.64   
   120. A(P   0,C  35,C  36)          124.55  0.023864   -0.91    123.64   
   121. A(C  36,C  35,C  40)          110.61 -0.028630    1.11    111.72   
   122. A(P   0,C  35,C  40)          123.25  0.004461   -0.19    123.07   
   123. A(C  35,C  36,C  37)          119.46 -0.015341    0.65    120.11   
   124. A(C  37,C  36,N  44)          107.81 -0.001811    0.09    107.90   
   125. A(C  35,C  36,N  44)          119.16  0.009470   -0.37    118.79   
   126. A(C  36,C  37,C  38)           97.40 -0.013468    0.62     98.02   
   127. A(C  38,C  37,H  52)          111.89 -0.016215    0.74    112.63   
   128. A(C  36,C  37,H  52)          112.95 -0.009481    0.46    113.41   
   129. A(C  39,C  38,H  53)          114.08 -0.007391    0.36    114.44   
   130. A(C  37,C  38,H  53)          115.40 -0.009528    0.44    115.84   
   131. A(C  37,C  38,C  39)          102.45 -0.004632    0.24    102.69   
   132. A(C  38,C  39,N  44)          107.91 -0.006054    0.27    108.18   
   133. A(H  19,C  39,N  44)          112.30 -0.005312    0.28    112.57   
   134. A(H  19,C  39,C  38)          112.69 -0.010126    0.48    113.17   
   135. A(C  41,C  40,N  45)          108.46  0.000081    0.02    108.47   
   136. A(C  35,C  40,N  45)          116.87  0.004927   -0.18    116.69   
   137. A(C  35,C  40,C  41)          122.26 -0.014173    0.60    122.86   
   138. A(C  40,C  41,H  51)          109.79 -0.002122    0.10    109.90   
   139. A(C  42,C  41,H  51)          108.94 -0.009946    0.46    109.40   
   140. A(C  40,C  41,C  42)          102.15  0.000202    0.02    102.17   
   141. A(C  43,C  42,H  49)          107.05 -0.010658    0.48    107.53   
   142. A(C  41,C  42,H  49)          111.07 -0.015190    0.67    111.73   
   143. A(C  41,C  42,C  43)          104.73  0.006520   -0.22    104.50   
   144. A(N  45,C  43,H  50)          119.00  0.009434   -0.36    118.65   
   145. A(C  42,C  43,H  50)          121.16 -0.003602    0.18    121.35   
   146. A(C  42,C  43,N  45)          110.08 -0.011647    0.45    110.53   
   147. A(C  39,N  44,B  46)          112.34 -0.006961    0.26    112.59   
   148. A(C  36,N  44,B  46)          116.38  0.005761   -0.23    116.15   
   149. A(C  36,N  44,C  39)          103.44 -0.001299    0.09    103.53   
   150. A(C  43,N  45,B  46)          115.63 -0.002375    0.09    115.72   
   151. A(C  40,N  45,B  46)          113.65  0.004632   -0.19    113.46   
   152. A(C  40,N  45,C  43)          101.33 -0.004419    0.19    101.52   
   153. A(F  47,B  46,F  48)          106.54 -0.004764    0.21    106.75   
   154. A(N  45,B  46,F  48)          111.58  0.008612   -0.35    111.23   
   155. A(N  44,B  46,F  48)          106.55 -0.007465    0.29    106.84   
   156. A(N  45,B  46,F  47)          107.81 -0.004295    0.14    107.95   
   157. A(N  44,B  46,F  47)          113.56  0.000265   -0.02    113.55   
   158. A(N  44,B  46,N  45)          110.78  0.007601   -0.28    110.50   
   159. D(H  21,C   2,C   1,H  20)     58.01  0.018032   -0.86     57.16   
   160. D(H  21,C   2,C   1,C   5)    178.39 -0.004446    0.22    178.61   
   161. D(C   3,C   2,C   1,C   5)    -59.41 -0.024396    1.18    -58.23   
   162. D(C   3,C   2,C   1,H  20)   -179.79 -0.001918    0.10   -179.69   
   163. D(C   4,C   3,C   2,H  21)    172.58 -0.001808    0.09    172.67   
   164. D(H  24,C   3,C   2,C   1)    173.80  0.002458   -0.10    173.70   
   165. D(H  24,C   3,C   2,H  21)    -63.21 -0.017312    0.84    -62.37   
   166. D(C   4,C   3,C   2,C   1)     49.59  0.017962   -0.86     48.74   
   167. D(C   6,C   4,P   0,C  15)    -81.66  0.011774   -0.53    -82.20   
   168. D(P   0,C   4,C   3,C   2)    152.81 -0.011548    0.54    153.35   
   169. D(C   6,C   4,P   0,C  12)     76.13  0.003222   -0.17     75.96   
[...]
   0 P  15.0000    0    30.974  -11.879044   20.660648    2.871778
   1 C   6.0000    0    12.011  -14.524799   26.310259    8.839599
   2 C   6.0000    0    12.011  -13.809560   27.126153    6.452922
   3 C   6.0000    0    12.011  -12.995680   25.398768    4.670664
   4 C   6.0000    0    12.011  -12.921090   22.832809    5.281601
   5 C   6.0000    0    12.011  -14.415054   23.766632    9.453723
   6 C   6.0000    0    12.011  -13.614380   22.015210    7.683323
   7 C   6.0000    0    12.011  -15.848388   22.286324   -0.209791
   8 C   6.0000    0    12.011  -17.485210   22.029670   -2.233610
   9 C   6.0000    0    12.011  -17.389665   19.890981   -3.741793
  10 C   6.0000    0    12.011  -15.662264   17.988607   -3.227277
  11 C   6.0000    0    12.011  -14.020223   18.219471   -1.208506
  12 C   6.0000    0    12.011  -14.112461   20.379378    0.300045
  13 C   6.0000    0    12.011   -6.029461   22.131307   -1.881060
  14 C   6.0000    0    12.011   -8.264031   21.206865   -0.886401
  15 C   6.0000    0    12.011   -8.956077   21.853378    1.568921
  16 C   6.0000    0    12.011   -4.497512   23.698040   -0.445726
  17 C   6.0000    0    12.011   -5.192988   24.348775    1.996644
  18 C   6.0000    0    12.011   -7.417661   23.432187    3.015571
  19 H   1.0000    0     1.008  -16.842462   11.235008    6.356751
  20 H   1.0000    0     1.008  -15.157018   27.663984   10.226292
  21 H   1.0000    0     1.008  -13.876817   29.109396    5.984437
  22 H   1.0000    0     1.008  -14.950186   23.140058   11.318331
  23 H   1.0000    0     1.008  -13.523878   20.034107    8.165955
  24 H   1.0000    0     1.008  -12.391234   26.028032    2.821096
  25 H   1.0000    0     1.008   -9.467342   20.000829   -2.011279
  26 H   1.0000    0     1.008   -5.488007   21.632544   -3.781999
  27 H   1.0000    0     1.008   -2.760389   24.419211   -1.231552
  28 H   1.0000    0     1.008   -4.000170   25.570941    3.110504
  29 H   1.0000    0     1.008   -7.957250   23.924395    4.923882
  30 H   1.0000    0     1.008  -12.696357   16.719645   -0.786314
  31 H   1.0000    0     1.008  -15.597974   16.317375   -4.393020
  32 H   1.0000    0     1.008  -18.671070   19.700266   -5.315558
  33 H   1.0000    0     1.008  -18.840489   23.500949   -2.627617
  34 H   1.0000    0     1.008  -15.942895   23.942549    0.980984
  35 C   6.0000    0    12.011  -11.611831   17.489993    4.152344
  36 C   6.0000    0    12.011  -13.904672   16.267680    4.649338
  37 C   6.0000    0    12.011  -16.425242   17.194979    4.689753
  38 C   6.0000    0    12.011  -17.944428   15.224724    5.432092
  39 C   6.0000    0    12.011  -16.357953   13.124986    5.802901
  40 C   6.0000    0    12.011   -9.317148   16.260321    4.553945
  41 C   6.0000    0    12.011   -6.765139   17.109445    4.531543
  42 C   6.0000    0    12.011   -5.289155   15.095634    5.231744
  43 C   6.0000    0    12.011   -6.925882   13.040636    5.642447
  44 N   7.0000    0    14.007  -13.976820   13.763053    5.359797
  45 N   7.0000    0    14.007   -9.295208   13.744173    5.263594
  46 B   5.0000    0    10.810  -11.648722   11.977324    5.224792
  47 F   9.0000    0    18.998  -11.606170   10.367421    7.221761
  48 F   9.0000    0    18.998  -11.700094   10.732670    2.947859
  49 H   1.0000    0     1.008   -3.275235   15.059864    5.434747
  50 H   1.0000    0     1.008   -6.480382   11.136506    6.182467
  51 H   1.0000    0     1.008   -6.131860   18.983251    4.105954
  52 H   1.0000    0     1.008  -17.002195   19.094969    4.271435
  53 H   1.0000    0     1.008  -19.952081   15.248537    5.690354

      -----------------------------------------------------------      
     |                   =====================                   |     
     |                           x T B                           |     
     |                   =====================                   |     
     |                         S. Grimme                         |     
     |          Mulliken Center for Theoretical Chemistry        |     
     |                    University of Bonn                     |     
      -----------------------------------------------------------      

   * xtb version 6.7.1 (edcfbbe) compiled by 'albert@albert-system' on 2024-07-22

   xtb is free software: you can redistribute it and/or modify it under
   the terms of the GNU Lesser General Public License as published by
   the Free Software Foundation, either version 3 of the License, or
   (at your option) any later version.
   
   xtb is distributed in the hope that it will be useful,
   but WITHOUT ANY WARRANTY; without even the implied warranty of
   MERCHANTABILITY or FITNESS FOR A PARTICULAR PURPOSE.  See the
   GNU Lesser General Public License for more details.
   
   Cite this work as:
   * C. Bannwarth, E. Caldeweyher, S. Ehlert, A. Hansen, P. Pracht,
     J. Seibert, S. Spicher, S. Grimme, WIREs Comput. Mol. Sci., 2020, 11,
     e01493. DOI: 10.1002/wcms.1493
   
   for GFN2-xTB:
   * C. Bannwarth, S. Ehlert and S. Grimme., J. Chem. Theory Comput., 2019,
     15, 1652-1671. DOI: 10.1021/acs.jctc.8b01176
   for GFN1-xTB:
   * S. Grimme, C. Bannwarth, P. Shushkov, J. Chem. Theory Comput., 2017,
     13, 1989-2009. DOI: 10.1021/acs.jctc.7b00118
   for GFN0-xTB:
   * P. Pracht, E. Caldeweyher, S. Ehlert, S. Grimme, ChemRxiv, 2019, preprint.
     DOI: 10.26434/chemrxiv.8326202.v1
   for GFN-FF:
   * S. Spicher and S. Grimme, Angew. Chem. Int. Ed., 2020, 59, 15665-15673.
     DOI: 10.1002/anie.202004239
   
   for ALPB and GBSA implicit solvation:
   * S. Ehlert, M. Stahn, S. Spicher, S. Grimme, J. Chem. Theory Comput.,
     2021, 17, 4250-4261. DOI: 10.1021/acs.jctc.1c00471
   
   for ddCOSMO and CPCM-X implicit solvation:
   * M. Stahn, S. Ehlert, S. Grimme, J. Phys. Chem. A,
     2023, XX, XXXX-XXXX. DOI: 10.1021/acs.jpca.3c04382
   
   for DFT-D4:
   * E. Caldeweyher, C. Bannwarth and S. Grimme, J. Chem. Phys., 2017,
     147, 034112. DOI: 10.1063/1.4993215
   * E. Caldeweyher, S. Ehlert, A. Hansen, H. Neugebauer, S. Spicher,
     C. Bannwarth and S. Grimme, J. Chem. Phys., 2019, 150, 154122.
     DOI: 10.1063/1.5090222
   * E. Caldeweyher, J.-M. Mewes, S. Ehlert and S. Grimme, Phys. Chem. Chem. Phys.
     2020, 22, 8499-8512. DOI: 10.1039/D0CP00502A
   
   for sTDA-xTB:
   * S. Grimme and C. Bannwarth, J. Chem. Phys., 2016, 145, 054103.
     DOI: 10.1063/1.4959605
   
   in the mass-spec context:
   * V. Asgeirsson, C. Bauer and S. Grimme, Chem. Sci., 2017, 8, 4879.
     DOI: 10.1039/c7sc00601b
   * J. Koopman and S. Grimme, ACS Omega 2019, 4, 12, 15120-15133.
     DOI: 10.1021/acsomega.9b02011
   
   for metadynamics refer to:
   * S. Grimme, J. Chem. Theory Comput., 2019, 155, 2847-2862
     DOI: 10.1021/acs.jctc.9b00143
   
   for SPH calculations refer to:
   * S. Spicher and S. Grimme, J. Chem. Theory Comput., 2021, 17, 1701-1714
     DOI: 10.1021/acs.jctc.0c01306
   
   for ONIOM refer to:
   * C. Plett, A. Katbashev, S. Ehlert, S. Grimme, M. Bursch,
     Phys. Chem. Chem. Phys., 2023, 25, 17860-17868. DOI: 10.1039/D3CP02178E
   
   for DIPRO refer to:
   * J. Kohn, N. Gildemeister, S. Grimme, D. Fazzi, A. Hansen,
     J. Chem. Phys., 2023, just accepted.
   
   for PTB refer to:
   * S. Grimme, M. Mueller, A. Hansen, J. Chem. Phys., 2023, 158, 124111.
     DOI: 10.1063/5.0137838
   
   with help from (in alphabetical order)
   P. Atkinson, C. Bannwarth, F. Bohle, G. Brandenburg, E. Caldeweyher
   M. Checinski, S. Dohm, S. Ehlert, S. Ehrlich, I. Gerasimov, C. Hölzer
   A. Katbashev, J. Kohn, J. Koopman, C. Lavigne, S. Lehtola, F. März, M. Müller,
   F. Musil, H. Neugebauer, J. Pisarek, C. Plett, P. Pracht, F. Pultar,
   J. Seibert, P. Shushkov, S. Spicher, M. Stahn, M. Steiner, T. Strunk,
   J. Stückrath, T. Rose, and J. Unsleber
   
 * started run on 2026/01/02 at 05:56:37.879     
   ID    Z sym.   atoms
    1   15 P      1
    2    6 C      2-19, 36-44
    3    1 H      20-35, 50-54
    4    7 N      45, 46
    5    5 B      47
    6    9 F      48, 49

           -------------------------------------------------
          |                Calculation Setup                |
           -------------------------------------------------

          program call               : otool_xtb TPP_BODIPY_Opt_XTB.xyz --grad -c 1 -u 0 -P 1 --namespace TPP_BODIPY_Opt --input TPP_BODIPY_Opt_XTB.input.tmp --acc 0.200000
          calculation namespace      : TPP_BODIPY_Opt
          coordinate file            : TPP_BODIPY_Opt_XTB.xyz
          omp threads                :                     1


           -------------------------------------------------
          |                 G F N 2 - x T B                 |
           -------------------------------------------------

        Reference                      10.1021/acs.jctc.8b01176
      * Hamiltonian:
        H0-scaling (s, p, d)           1.850000    2.230000    2.230000
        zeta-weighting                 0.500000
      * Dispersion:
        s8                             2.700000
        a1                             0.520000
        a2                             5.000000
        s9                             5.000000
      * Repulsion:
        kExp                           1.500000    1.000000
        rExp                           1.000000
      * Coulomb:
        alpha                          2.000000
        third order                    shell-resolved
        anisotropic                    true
        a3                             3.000000
        a5                             4.000000
        cn-shift                       1.200000
        cn-exp                         4.000000
        max-rad                        5.000000

q/qsh data taken from xtbrestart
CAMM data taken from xtbrestart

          ...................................................
          :                      SETUP                      :
          :.................................................:
          :  # basis functions                 159          :
          :  # atomic orbitals                 158          :
          :  # shells                           88          :
          :  # electrons                       160          :
          :  max. iterations                   250          :
          :  Hamiltonian                  GFN2-xTB          :
          :  restarted?                       true          :
          :  GBSA solvation                  false          :
          :  PC potential                    false          :
          :  electronic temp.          300.0000000     K    :
          :  accuracy                    0.2000000          :
          :  -> integral cutoff          0.3198970E+02      :
          :  -> integral neglect         0.2000000E-08      :
          :  -> SCF convergence          0.2000000E-06 Eh   :
          :  -> wf. convergence          0.2000000E-04 e    :
          :  Broyden damping             0.4000000          :
          :  net charge                          1          :
          :  unpaired electrons                  0          :
          ...................................................

 iter      E             dE          RMSdq      gap      omega  full diag
   1    -88.7438497 -0.887438E+02  0.872E-03    1.54       0.0  T
   2    -88.7438497 -0.181053E-07  0.516E-03    1.54       2.6  T
   3    -88.7438496  0.195718E-06  0.174E-03    1.54       7.8  T
   4    -88.7438498 -0.208389E-06  0.409E-04    1.54      33.3  T
   5    -88.7438498 -0.586866E-08  0.245E-04    1.54      55.6  T
   6    -88.7438498 -0.198544E-08  0.146E-04    1.54      93.5  T
   7    -88.7438498 -0.105479E-08  0.414E-05    1.54     328.7  T

   *** convergence criteria satisfied after 7 iterations ***

         #    Occupation            Energy/Eh            Energy/eV
      -------------------------------------------------------------
         1        2.0000           -0.8630487             -23.4848
       ...           ...                  ...                  ...
        74        2.0000           -0.5399350             -14.6924
        75        2.0000           -0.5396866             -14.6856
        76        2.0000           -0.5384369             -14.6516
        77        2.0000           -0.5328239             -14.4989
        78        2.0000           -0.5311103             -14.4522
        79        2.0000           -0.5305123             -14.4360
        80        2.0000           -0.5058610             -13.7652 (HOMO)
        81                         -0.4492718             -12.2253 (LUMO)
        82                         -0.3882950             -10.5660
        83                         -0.3871220             -10.5341
        84                         -0.3719442             -10.1211
        85                         -0.3630032              -9.8778
       ...                                ...                  ...
       158                          0.8547843              23.2599
      -------------------------------------------------------------
                  HL-Gap            0.0565892 Eh            1.5399 eV
             Fermi-level           -0.4775664 Eh          -12.9952 eV

 SCC (total)                   0 d,  0 h,  0 min,  0.086 sec
 SCC setup                      ...        0 min,  0.000 sec (  0.458%)
 Dispersion                     ...        0 min,  0.001 sec (  0.907%)
 classical contributions        ...        0 min,  0.000 sec (  0.126%)
 integral evaluation            ...        0 min,  0.016 sec ( 18.923%)
 iterations                     ...        0 min,  0.022 sec ( 26.148%)
 molecular gradient             ...        0 min,  0.045 sec ( 52.865%)
 printout                       ...        0 min,  0.000 sec (  0.540%)

         :::::::::::::::::::::::::::::::::::::::::::::::::::::
         ::                     SUMMARY                     ::
         :::::::::::::::::::::::::::::::::::::::::::::::::::::
         :: total energy             -87.306932130800 Eh    ::
         :: gradient norm              0.000378343350 Eh/a0 ::
         :: HOMO-LUMO gap              1.539869970516 eV    ::
         ::.................................................::
         :: SCC energy               -88.741365231173 Eh    ::
         :: -> isotropic ES            0.148280650494 Eh    ::
         :: -> anisotropic ES         -0.017522825470 Eh    ::
         :: -> anisotropic XC          0.044865139136 Eh    ::
         :: -> dispersion             -0.078143177495 Eh    ::
         :: repulsion energy           1.434433100373 Eh    ::
         :: add. restraining           0.000000000000 Eh    ::
         :: total charge               1.000000000000 e     ::
         :::::::::::::::::::::::::::::::::::::::::::::::::::::


Property printout bound to 'properties.out'

           -------------------------------------------------
          | TOTAL ENERGY              -87.306932130800 Eh   |
          | GRADIENT NORM               0.000378343350 Eh/α |
          | HOMO-LUMO GAP               1.539869970516 eV   |
           -------------------------------------------------

------------------------------------------------------------------------
 * finished run on 2026/01/02 at 05:56:37.988     
------------------------------------------------------------------------
 total:
 * wall-time:     0 d,  0 h,  0 min,  0.109 sec
 *  cpu-time:     0 d,  0 h,  0 min,  0.108 sec
 * ratio c/w:     0.993 speedup
 SCF:
 * wall-time:     0 d,  0 h,  0 min,  0.086 sec
 *  cpu-time:     0 d,  0 h,  0 min,  0.086 sec
 * ratio c/w:     0.993 speedup


-------------------------   --------------------
FINAL SINGLE POINT ENERGY       -87.306932130800
-------------------------   --------------------


-------------
DIPOLE MOMENT
-------------
                                X             Y             Z
Total Dipole Moment    :    -11.87700      22.67700       2.72100
                        -----------------------------------------
Magnitude (a.u.)       :     25.74322
Magnitude (Debye)      :     65.43406

                                *** OPTIMIZATION RUN DONE ***


--------------------------------
SUGGESTED CITATIONS FOR THIS RUN
--------------------------------

Below you find a list of papers that are relevant to this ORCA run
We neither can nor want to force you to cite these papers, but we appreciate if you do
You receive ORCA, which is the product of decades of hard work by many enthusiastic individuals, for free
The only thing we kindly ask in return is that you cite our papers,
We deeply appreciate it, if you show your appreciation for ORCA by not just citing the generic ORCA reference.

Please note that relegating all ORCA citations to the supporting information does *not* help us.
SI sections are not indexed - citations you put there will not count into any citation statistics
But we need these citations in order to attract the funding resources that allow us to do what we are doing

Therefore, if you are a happy ORCA user, please consider citing a few of the papers listed below in the main body of your paper

In addition to the list printed below, the program has created the file TPP_BODIPY_Opt.bibtex that contains the list in bibtex format
You can import this file easily into all common literature databanks and citation aid programs


List of essential papers. We consider these as the minimum necessary citations

  1. Bannwarth, C.; Ehlert, S.; Grimme, S.
     GFN2-xTB—An Accurate and Broadly Parametrized Self-Consistent Tight-Binding Quantum Chemical Method with Multipole Electrostatics and Density-Dependent Dispersion Contributions
     J. Chem. Theory Comput. 2019 15(3), 1652-1671
     doi.org/10.1021/acs.jctc.8b01176
  2. Neese, F.
     Software update: the ORCA program system, version 6.0
     WIRES Comput. Molec. Sci. 2025 15(1), e70019
     doi.org/10.1002/wcms.7019

List of papers to cite with high priority. The work reported in these papers was absolutely
necessary for this run to complete.
Our perspective: the developers of density functionals and basis sets usually get cited in chemistry papers
Good! But without the algorithms to do something with them, the functionals or basis sets would not do anything.
Hence, in our opinion, the algorithm design and method developments papers are equally worthy of getting cited

  1. Bannwarth, C.; Caldeweyher, E.; Ehlert, S.; Hansen, A.; Pracht, P.; Seibert, J.; Spicher, S.; Grimme, S.
     Extended tight-binding quantum chemistry methods
     WIRES Comput. Molec. Sci. 2020 11(2), e1493
     doi.org/10.1002/wcms.1493

List of suggested additional citations. These are papers that are important in the 'surrounding' of 
of this run, or papers that preceded the highly important papers. If you like your results we are grateful for a citation.

  1. Neese, F.
     The ORCA program system
     WIRES Comput. Molec. Sci. 2012 2(1), 73-78
     doi.org/10.1002/wcms.81
  2. Neese, F.
     Software update: the ORCA program system, version 4.0
     WIRES Comput. Molec. Sci. 2018 8(1), 1-6
     doi.org/10.1002/wcms.1327
  3. Neese, F.; Wennmohs, F.; Becker, U.; Riplinger, C.
     The ORCA quantum chemistry program package
     J. Chem. Phys. 2020 152(22), 224108
     doi.org/10.1063/5.0004608
  4. Neese, F.
     Software update: The ORCA program system—Version 5.0
     WIRES Comput. Molec. Sci. 2022 12(1), e1606
     doi.org/10.1002/wcms.1606

List of optional additional citations

  1. Neese, F.
     Approximate second-order SCF convergence for spin unrestricted wavefunctions
     Chem. Phys. Lett. 2000 325(1-3), 93-98
     doi.org/10.1016/s0009-2614(00)00662-x

Timings for individual modules:

Sum of individual times          ...        9.998 sec (=   0.167 min)
Geometry relaxation              ...        1.760 sec (=   0.029 min)  17.6 %
XTB module                       ...        8.237 sec (=   0.137 min)  82.4 %
                             ****ORCA TERMINATED NORMALLY****
TOTAL RUN TIME: 0 days 0 hours 0 minutes 10 seconds 977 msec
