
                                 *****************
                                 * O   R   C   A *
                                 *****************

                                            #,                                       
                                            ###                                      
                                            ####                                     
                                            #####                                    
                                            ######                                   
                                           ########,                                 
                                     ,,################,,,,,                         
                               ,,#################################,,                 
                          ,,##########################################,,             
                       ,#########################################, ''#####,          
                    ,#############################################,,   '####,        
                  ,##################################################,,,,####,       
                ,###########''''           ''''###############################       
              ,#####''   ,,,,##########,,,,          '''####'''          '####       
            ,##' ,,,,###########################,,,                        '##       
           ' ,,###''''                  '''############,,,                           
         ,,##''                                '''############,,,,        ,,,,,,###''
      ,#''                                            '''#######################'''  
     '                                                          ''''####''''         
             ,#######,   #######,   ,#######,      ##                                
            ,#'     '#,  ##    ##  ,#'     '#,    #''#        ,####,    ,#,          
            ##       ##  ##   ,#'  ##            #'  '#       #'       ,# #          
            ##       ##  #######   ##           ,######,      #####,      #          
            '#,     ,#'  ##    ##  '#,     ,#' ,#      #,     #,   #      #          
             '#######'   ##     ##  '#######'  #'      '#     '####' #    #          



                #########################################################
                #                        -***-                          #
                #          Department of theory and spectroscopy        #
                #                                                       #
                #                      Frank Neese                      #
                #                                                       #
                #     Directorship, Architecture, Infrastructure        #
                #                    SHARK, DRIVERS                     #
                #        Core code/Algorithms in most modules           #
                #                                                       #
                #        Max Planck Institute fuer Kohlenforschung      #
                #                Kaiser Wilhelm Platz 1                 #
                #                 D-45470 Muelheim/Ruhr                 #
                #                      Germany                          #
                #                                                       #
                #                  All rights reserved                  #
                #                        -***-                          #
                #########################################################


                         Program Version 6.1.0  -  RELEASE   -
                                (GIT: $679e74b$)
                          ($2025-06-10 18:02:51 +0200$)


 With contributions from (in alphabetic order):
[Max-Planck-Institut fuer Kohlenforschung]                               
  Daniel Aravena         : Magnetic Suceptibility                        
  Michael Atanasov       : Ab Initio Ligand Field Theory (pilot matlab implementation)
  Alexander A. Auer      : GIAO ZORA, VPT2 properties, NMR spectrum      
  Ute Becker             : All parallelization in ORCA, NUMFREQ, NUMCALC 
  Giovanni Bistoni       : ED, misc. LED, open-shell LED, HFLD           
  Dmytro Bykov           : pre 5.0 version of the SCF Hessian            
  Marcos Casanova-Páez   : Triplet and SCS-CIS(D). UHF-(DLPNO)-IP/EA/STEOM-CCSD. UHF-CVS-IP/STEOM-CCSD   
  Vijay G. Chilkuri      : MRCI spin determinant printing, contributions to CSF-ICE 
  Pauline Colinet        : FMM embedding                                 
  Dipayan Datta          : RHF DLPNO-CCSD density                        
  Achintya Kumar Dutta   : EOM-CC, STEOM-CC                              
  Nicolas Foglia         : Exact transition moments, OPA infrastructure, MCD improvements    
  Dmitry Ganyushin       : Spin-Orbit,Spin-Spin,Magnetic field MRCI      
  Miquel Garcia-Rates    : C-PCM and meta-GGA Hessian, CCSD/C-PCM, Gaussian charge scheme 
  Tiago L. C. Gouveia    : GS-ROHF, GS-ROCIS                             
  Yang Guo               : DLPNO-NEVPT2, F12-NEVPT2, CIM, IAO-localization        
  Andreas Hansen         : Spin unrestricted coupled pair/coupled cluster methods 
  Ingolf Harden          : AUTO-CI MPn and infrastructure                
  Benjamin Helmich-Paris : MC-RPA, TRAH-(SCF,CASSCF), AVAS, COSX integrals, SCF dyn. polar., MC-PDFT, srDFT 
  Lee Huntington         : MR-EOM, pCC                                   
  Robert Izsak           : Overlap fitted RIJCOSX, COSX-SCS-MP3, EOM     
  Riya Kayal             : Wick's Theorem for AUTO-CI, AUTO-CI UHF-CCSDT 
  Emily Kempfer          : AUTO-CI RHF CISDT and CCSDT, approximate NEVPT4
  Christian Kollmar      : KDIIS, OOCD, Brueckner-CCSD(T), CCSD density, CASPT2, CASPT2-K, improved NEVPT2 
  Axel Koslowski         : Symmetry handling                             
  Simone Kossmann        : meta-GGA functionals, TD-DFT gradient, OOMP2, (MP2 Hessian; deprecated post 5.0) 
  Lucas Lang             : DCDCAS, Hyperfine gauge corrections, ICE-SOC+SSC
  Marvin Lechner         : AUTO-CI (C++ implementation), FIC-MRCC        
  Spencer Leger          : CASSCF response                               
  Dagmar Lenk            : GEPOL surface, SMD, ORCA-2-JSON               
  Dimitrios Liakos       : Extrapolation schemes; Compound Job, Property file
  Dimitrios Manganas     : Further ROCIS development; embedding schemes. LFT, Crystal Embedding 
  Dimitrios Pantazis     : SARC Basis sets                               
  Anastasios Papadopoulos: AUTO-CI, single reference methods and gradients 
  Taras Petrenko         : pre 6.0 DFT Hessian and TD-DFT gradient,  ECA, NRVS 
  Petra Pikulova         : Analytic Raman intensities                    
  Peter Pinski           : DLPNO-MP2, DLPNO-MP2 Gradient                 
  Shashank Vittal Rao    : ES-AILFT, MagRelax                            
  Christoph Reimann      : Effective Core Potentials                     
  Marius Retegan         : Local ZFS, SOC                                
  Christoph Riplinger    : Optimizer, TS searches, QM/MM, DLPNO-CCSD(T), (RO)-DLPNO pert. Triples 
  Michael Roemelt        : Original ROCIS implementation, recursive CI coupling coefficients
  Masaaki Saitow         : Open-shell DLPNO-CCSD energy and density      
  Barbara Sandhoefer     : DKH picture change effects                    
  Yorick L. A. Schmerwitz: GMF and freeze-and-release deltaSCF, NEB S-IDPP initial path                    
  Kantharuban Sivalingam : CASSCF convergence/infrastructure, NEVPT2, NEVPT3, NEVPT4(SD), FIC-MRCI and CEPA variants
  Bernardo de Souza      : ESD, SOC TD-DFT                               
  Georgi L. Stoychev     : AutoAux, RI-MP2 NMR, DLPNO-MP2 response, X2C  
  Van Anh Tran           : RI-MP2 g-tensors                              
  Willem Van den Heuvel  : Paramagnetic NMR                              
  Zikuan Wang            : NOTCH, Electric field optimization            
  Frank Wennmohs         : Technical directorship and infrastructure     
  Hang Xu                : AUTO-CI-Response properties                   
                                                                         
[FACCTs GmbH]                                                            
  Markus Bursch, Nicolas Foglia, Miquel Garcia-Rates, Ingolf Harden, Hagen Neugebauer, Anastasios Papadopoulos, 
  Christoph Riplinger, Bernardo de Souza, Georgi L. Stoychev                                                    
                                                                 
  APM, various basis sets, CI-OPT, improved COSX, DLPNO-Multilevel,           
  DOCKER, DRACO, updates on ESD, Fragmentator, GOAT, IRC, LR-CPCM, L-BFGS, MBIS, meta-GGA TD-DFT gradient, ML-optimized integration grids, 
  MM, NACMEs, nearIR, NEB, NEB-TS, NL-DFT gradient (VV10), 2- and 3-layer-ONIOM, interface openCOSMO-RS, QMMM,   
  Crystal-QMMM, RESP, rigid body optimization, SF, symmetry and pop. for TD-DFT, various functionals, SOLVATOR                                   
                                                                         
[Other institutions]                                                     
  V. Asgeirsson          : NEB                                           
  Christoph Bannwarth    : sTDA-DFT, sTD-DFT, PBEh-3c, B97-3c, D3        
  Giovanni Bistoni       : ETS/NOCV, ADLD/ADEX, COVALED                  
  Martin Brehm           : Molecular dynamics                            
  Ronald Cardenas        : ETS/NOCV                                      
  Martina Colucci        : COVALED                                       
  Sebastian Ehlert       : rSCAN, r2SCAN, r2SCAN-3c, D4, dhf basis sets  
  Marvin Friede          : D4 for Fr, Ra, Ac-Lr                          
  Lars Goerigk           : TD-DFT with DH, B97 family of functionals     
  Stefan Grimme          : VdW corrections, initial TS optimization, DFT functionals, gCP, sTDA/sTD-DF 
  Waldemar Hujo          : DFT-NL                                        
  H. Jonsson             : NEB                                           
  Holger Kruse           : gCP                                           
  Marcel Mueller         : wB97X-3c, vDZP basis set                      
  Hagen Neugebauer       : wr2SCAN, Native XTB                           
  Gianluca Regni         : ADLD/ADEX                                     
  Tobias Risthaus        : pre 6.0 range-separated hybrid DFT and stability analysis
  Lukas Wittmann         : regularized MP2, r2SCAN double-hybrids, wr2SCAN        
                                                                         
We gratefully acknowledge several colleagues who have allowed us to      
interface, adapt or use parts of their codes:                            
  Ed Valeev, F. Pavosevic, A. Kumar             : LibInt (2-el integral package), F12 methods 
  Garnet Chan, S. Sharma, J. Yang, R. Olivares  : DMRG                   
  Ulf Ekstrom                                   : XCFun DFT Library      
  Mihaly Kallay                                 : mrcc  (arbitrary order and MRCC methods)
  Frank Weinhold                                : gennbo (NPA and NBO analysis)           
  Simon Mueller                                 : openCOSMO-RS                            
  Christopher J. Cramer and Donald G. Truhlar   : smd solvation model                     
  S Lehtola, MJT Oliveira, MAL Marques          : LibXC Library                           
  Liviu Ungur et al                             : ANISO software                          


 Your calculation uses the libint2 library for the computation of 2-el integrals
 For citations please refer to: http://libint.valeyev.net

 Your ORCA version has been built with support for libXC version: 7.0.0
 For citations please refer to: https://libxc.gitlab.io

 This ORCA versions uses:
   CBLAS   interface :  Fast vector & matrix operations
   LAPACKE interface :  Fast linear algebra routines
   SCALAPACK package :  Parallel linear algebra routines
   Shared memory     :  Shared parallel matrices
   BLAS/LAPACK       :  OpenBLAS 0.3.29  USE64BITINT DYNAMIC_ARCH NO_AFFINITY Haswell SINGLE_THREADED
        Core in use  :  Haswell
   Copyright (c) 2011-2014, The OpenBLAS Project


  ***********************************
  * Starting time: Tue Oct 28 14:26:10 2025
  * Host name:     corine-kengne-Latitude-5491
  * Process ID:    28818
  * Working dir.:  /home/corine-kengne/Documents/Travaux M2/Orca_optimisation/iodo-BODIPY
  ***********************************

NOTE: MaxCore=10000 MB was set to SCF,MP2,MDCI,CIPSI,MRCI,RASCI and CIS
      => If you want to overwrite this, your respective input block should be placed after the MaxCore statement
Your calculation utilizes the semiempirical GFN2-xTB method
Please cite in your paper:
Bannwarth, C.; Ehlert S.; Grimme, S. J. Chem. Theory Comput. 2019, 15, 1652.
   

================================================================================

cite the ECPs for I  [Def2-ECP] as follows:
Ce-Yb(ecp-28): M. Dolg, H. Stoll, H.Preuss, J. Chem. Phys., 1989, 90, 1730-1734.
Y-Cd(ecp-28), Hf-Hg(ecp-46): D. Andrae,U. Haeussermann, M. Dolg, H. Stoll, H. Preuss, Theor. Chim. Acta, 1990, 77, 123-141.
In-Sb(ecp-28), Tl-Bi(ecp-46): B. Metz, H. Stoll, M. Dolg, J. Chem. Phys., 2000, 113, 2563-2569.
Te-Xe(ecp-28), Po-Rn(ecp-46): K. A. Peterson, D. Figgen, E. Goll, H. Stoll, M. Dolg, J. Chem. Phys., 2003, 119, 11113-11123.
Rb(ecp-28), Cs(ecp-46): T. Leininger, A. Nicklass, W. Kuechle, H. Stoll, M. Dolg, A. Bergner, Chem. Phys. Lett., 1996, 255, 274-280.
Sr(ecp-28), Ba(ecp-46): M. Kaupp, P. V. Schleyer, H. Stoll and H. Preuss, J. Chem. Phys., 1991, 94, 1360-1366.
La(ecp-46): M. Dolg, H. Stoll, A. Savin, H. Preuss, Theor. Chim. Acta, 1989, 75, 173-194.
Lu(ecp-28): X. Cao, M. Dolg, J. Chem. Phys., 2001, 115, 7348-7355.

ECP parameters for I  [Def2-ECP] have been obtained from:
TURBOMOLE (7.0.2)

================================================================================
                                        WARNINGS
                       Please study these warnings very carefully!
================================================================================


WARNING: Geometry Optimization
  ===> : Switching off AutoStart
         For restart on a previous wavefunction, please use MOREAD

WARNING: Found dipole moment calculation with XTB calculation
  ===> : Switching off dipole moment calculation


================================================================================
                                       INPUT FILE
================================================================================
NAME = Iodo_opt.inp
|  1> ! xtb2 Opt
|  2> 
|  3> %maxcore 10000          # Alloue 10000 Mo de RAM pour le calcul
|  4> 
|  5> * xyz 0 1               # Début des coordonnées : charge 0, multiplicité 1 (singulet)
|  6> C     -4.088304    2.932418   -0.071998
|  7> C     -2.365839    2.884032   -0.144285
|  8> C     -0.299369    2.986564   -0.082554
|  9> C     -4.861814    1.743996   -0.064168
| 10> C      0.637427    2.038270   -0.089465
| 11> C     -0.075351    0.759885    0.023251
| 12> C     -4.565527    0.399465   -0.039846
| 13> N     -3.279763    0.847718   -0.119754
| 14> C     -1.351733    2.019172   -0.122426
| 15> F     -2.999342   -0.712475   -0.046908
| 16> F     -1.440980   -0.809848   -0.367432
| 17> B     -2.291555    0.213657   -0.208175
| 18> I     -6.869077    1.848192    0.323272
| 19> I      2.616939    1.958459    0.329749
| 20> C     -3.278668    1.822856   -0.169534
| 21> N     -1.334585    0.984087   -0.026479
| 22> H     -4.794206    3.742867    0.034152
| 23> H     -2.275101    3.963002   -0.122875
| 24> H      0.445782    3.768565   -0.004415
| 25> H      0.872652    0.201110    0.058698
| 26> H     -5.534520   -0.077430   -0.044024
| 27> *
| 28> 
| 29>                          ****END OF INPUT****
================================================================================

                       *****************************
                       * Geometry Optimization Run *
                       *****************************

Geometry optimization settings:
Update method            Update   .... BFGS
Choice of coordinates    CoordSys .... (2022) Redundant Internals
Initial Hessian          InHess   .... Almloef's Model
Max. no of cycles        MaxIter  .... 63

Convergence Tolerances:
Energy Change            TolE     ....  5.0000e-06 Eh
Max. Gradient            TolMAXG  ....  3.0000e-04 Eh/bohr
RMS Gradient             TolRMSG  ....  1.0000e-04 Eh/bohr
Max. Displacement        TolMAXD  ....  4.0000e-03 bohr
RMS Displacement         TolRMSD  ....  2.0000e-03 bohr
Strict Convergence                .... False

------------------------------------------------------------------------------
                        ORCA OPTIMIZATION COORDINATE SETUP
------------------------------------------------------------------------------

The optimization will be done in redundant internal coordinates (2022)
Making redundant internal coordinates   ...  (2022 redundants) done
Evaluating the initial hessian          ...  (Almloef) done
Evaluating the coordinates              ...  done
Calculating the B-matrix                .... done
Calculating the G-matrix                .... done
The number of degrees of freedom        ....  423

    -----------------------------------------------------------------
                    Redundant Internal Coordinates


    -----------------------------------------------------------------
         Definition                    Initial Value    Approx d2E/dq
    -----------------------------------------------------------------
      1. B(C   1,C   0)                  1.7247         0.182730   
      2. B(C   3,C   0)                  1.4180         0.563722   
      3. B(C   4,C   2)                  1.3330         0.770325   
      4. B(C   5,C   4)                  1.4680         0.469130   
      5. B(C   6,C   3)                  1.3770         0.655348   
      6. B(N   7,C   6)                  1.3640         0.615675   
      7. B(N   7,C   3)                  1.8191         0.115665   
      8. B(C   8,C   4)                  1.9895         0.069061   
      9. B(C   8,C   1)                  1.3330         0.770351   
     10. B(C   8,C   5)                  1.7989         0.139093   
     11. B(C   8,C   2)                  1.4300         0.539408   
     12. B(F   9,C   6)                  1.9208         0.073985   
     13. B(F   9,N   7)                  1.5869         0.225952   
     14. B(F  10,F   9)                  1.5940         0.204545   
     15. B(B  11,N   7)                  1.1775         1.415111   
     16. B(B  11,F  10)                  1.3403         0.722900   
     17. B(B  11,F   9)                  1.1767         1.318394   
     18. B(B  11,C   8)                  2.0373         0.067122   
     19. B(I  12,C   3)                  2.0470         0.187968   
     20. B(I  13,C   4)                  2.0250         0.203774   
     21. B(C  14,C   8)                  1.9375         0.083611   
     22. B(C  14,N   7)                  0.9764         2.557022   
     23. B(C  14,C   6)                  1.9232         0.088101   
     24. B(C  14,C   3)                  1.5886         0.301213   
     25. B(C  14,C   1)                  1.4000         0.602269   
     26. B(C  14,B  11)                  1.8882         0.116055   
     27. B(C  14,C   0)                  1.3770         0.655339   
     28. B(N  15,B  11)                  1.2419         1.116719   
     29. B(N  15,F  10)                  1.8291         0.092785   
     30. B(N  15,C   8)                  1.0397         2.026817   
     31. B(N  15,C   5)                  1.2800         0.838238   
     32. B(H  16,C   0)                  1.0800         0.373579   
     33. B(H  17,C   1)                  1.0830         0.369493   
     34. B(H  18,C   2)                  1.0830         0.369485   
     35. B(H  19,C   5)                  1.1010         0.345842   
     36. B(H  20,C   6)                  1.0800         0.373579   
     37. A(C   3,C   0,C  14)           69.2558         0.430977   
     38. A(C   1,C   0,C  14)           52.2082         0.354009   
     39. A(C  14,C   0,H  16)          174.8327         0.358473   
     40. A(C   1,C   0,H  16)          132.6841         0.290825   
     41. A(C   1,C   0,C   3)          121.4341         0.345129   
     42. A(C   3,C   0,H  16)          105.7736         0.349443   
     43. A(C   8,C   1,H  17)          125.6150         0.367823   
     44. A(C  14,C   1,H  17)          144.1113         0.352714   
     45. A(C   0,C   1,C  14)           51.0110         0.348992   
     46. A(C   0,C   1,H  17)           93.1470         0.290324   
     47. A(C   8,C   1,C  14)           90.2606         0.449075   
     48. A(C   0,C   1,C   8)          141.0159         0.363887   
     49. A(C   4,C   2,H  18)           91.7486         0.367819   
     50. A(C   4,C   2,C   8)           92.0505         0.440200   
     51. A(C   6,C   3,C  14)           80.5152         0.385751   
     52. A(C   0,C   3,I  12)          119.5575         0.368673   
     53. A(C   0,C   3,N   7)           86.4659         0.318043   
     54. A(N   7,C   3,C  14)           32.4087         0.287751   
     55. A(N   7,C   3,I  12)          152.0873         0.282809   
     56. A(C   6,C   3,I  12)          104.9131         0.378371   
     57. A(C   6,C   3,N   7)           48.1135         0.325985   
     58. A(C   0,C   3,C  14)           54.1554         0.375806   
     59. A(I  12,C   3,C  14)          170.8444         0.331685   
     60. A(C   0,C   3,C   6)          134.5119         0.430978   
     61. A(C   2,C   4,I  13)          135.5575         0.394690   
     62. A(C   5,C   4,C   8)           60.4922         0.286132   
     63. A(C   2,C   4,C   8)           45.9148         0.309550   
     64. A(C   8,C   4,I  13)          168.6417         0.266095   
     65. A(C   2,C   4,C   5)          106.1340         0.429277   
     66. A(C   5,C   4,I  13)          115.1141         0.362232   
     67. A(N  15,C   5,H  19)          159.5889         0.366676   
     68. A(C   4,C   5,N  15)          108.7929         0.432993   
     69. A(C   8,C   5,N  15)           34.5364         0.350244   
     70. A(C   4,C   5,C   8)           74.2575         0.319983   
     71. A(C   8,C   5,H  19)          165.6507         0.275453   
     72. A(C   4,C   5,H  19)           91.5107         0.334513   
     73. A(N   7,C   6,C  14)           28.6102         0.308698   
     74. A(C   3,C   6,C  14)           54.5589         0.313674   
     75. A(C   3,C   6,H  20)          103.7707         0.358474   
     76. A(F   9,C   6,C  14)           83.2586         0.224243   
     77. A(C  14,C   6,H  20)          157.9538         0.260106   
     78. A(F   9,C   6,H  20)          118.4208         0.251211   
     79. A(C   3,C   6,N   7)           83.1604         0.435000   
     80. A(N   7,C   6,H  20)          172.1548         0.352506   
     81. A(N   7,C   6,F   9)           54.6485         0.297276   
     82. A(C   3,C   6,F   9)          137.7850         0.301993   
     83. A(C   3,N   7,C   6)           48.7261         0.320736   
     84. A(C   6,N   7,B  11)          128.2113         0.501977   
     85. A(F   9,N   7,B  11)           47.5992         0.413527   
     86. A(C   6,N   7,F   9)           80.8385         0.354873   
     87. A(C   3,N   7,F   9)          129.5454         0.271104   
     88. A(B  11,N   7,C  14)          122.2104         0.659018   
     89. A(F   9,N   7,C  14)          169.7543         0.455976   
     90. A(C   6,N   7,C  14)          109.4052         0.555995   
     91. A(C   3,N   7,C  14)           60.6911         0.408858   
     92. A(C   5,C   8,B  11)           73.1622         0.239360   
     93. A(C   4,C   8,B  11)          118.0624         0.217324   
     94. A(C   2,C   8,B  11)          160.0850         0.293342   
     95. A(C   1,C   8,B  11)          102.9062         0.310507   
     96. A(C   2,C   8,C   4)           42.0348         0.292460   
     97. A(C   1,C   8,C   4)          138.9972         0.309552   
     98. A(C   5,C   8,N  15)           44.2658         0.408032   
     99. A(C   2,C   8,N  15)          131.2089         0.522570   
    100. A(C   1,C   8,N  15)          131.3010         0.558991   
    101. A(C   4,C   8,N  15)           89.5151         0.361278   
    102. A(C   1,C   8,C   2)           96.9732         0.440202   
    103. A(C   5,C   8,C  14)          129.5460         0.245332   
    104. A(C  14,C   8,N  15)           85.2832         0.373318   
    105. A(C   2,C   8,C  14)          143.2387         0.301458   
    106. A(C   1,C   8,C  14)           46.2677         0.319305   
    107. A(C   4,C   8,C   5)           45.2502         0.238711   
    108. A(B  11,C   8,N  15)           29.4433         0.362457   
    109. A(C   2,C   8,C   5)           87.0854         0.327398   
    110. A(C   4,C   8,C  14)          174.7153         0.222421   
    111. A(C   1,C   8,C   5)          174.4369         0.347424   
    112. A(B  11,C   8,C  14)           56.6588         0.222999   
    113. A(N   7,F   9,F  10)          102.9204         0.292095   
    114. A(C   6,F   9,F  10)          146.4375         0.248098   
    115. A(C   6,F   9,N   7)           44.5130         0.252668   
    116. A(F  10,F   9,B  11)           55.4216         0.397761   
    117. A(N   7,F   9,B  11)           47.6381         0.406631   
    118. A(C   6,F   9,B  11)           92.0249         0.337821   
    119. A(B  11,F  10,N  15)           42.7625         0.315656   
    120. A(F   9,F  10,N  15)           87.6773         0.255039   
    121. A(F   9,F  10,B  11)           46.2918         0.358499   
    122. A(C  14,B  11,N  15)           82.5968         0.362457   
    123. A(F  10,B  11,N  15)           90.1205         0.497159   
    124. A(F   9,B  11,N  15)          158.6970         0.556623   
    125. A(C   8,B  11,N  15)           24.2995         0.330583   
    126. A(N   7,B  11,N  15)          107.5573         0.566775   
    127. A(F  10,B  11,C  14)          170.0585         0.335475   
    128. A(F   9,B  11,C  14)          110.7010         0.371384   
    129. A(C   8,B  11,C  14)           59.0041         0.234885   
    130. A(N   7,B  11,C  14)           25.9457         0.377514   
    131. A(F   9,B  11,F  10)           78.2866         0.510482   
    132. A(C   8,B  11,F  10)          112.8930         0.306746   
    133. A(N   7,B  11,F  10)          162.3182         0.519633   
    134. A(C   8,B  11,F   9)          165.7452         0.338469   
    135. A(N   7,B  11,F   9)           84.7626         0.582371   
    136. A(N   7,B  11,C   8)           84.6504         0.343885   
    137. A(C   1,C  14,C   6)          174.9005         0.309419   
    138. A(C   0,C  14,C   6)          101.4297         0.313673   
    139. A(C   1,C  14,C   3)          133.3310         0.380132   
    140. A(C   0,C  14,C   3)           56.5887         0.385750   
    141. A(C   0,C  14,C   1)           76.7808         0.436136   
    142. A(C   8,C  14,B  11)           64.3370         0.240679   
    143. A(N   7,C  14,B  11)           31.8439         0.415253   
    144. A(C   6,C  14,B  11)           73.7660         0.242485   
    145. A(C   3,C  14,B  11)          118.6872         0.291725   
    146. A(C   1,C  14,B  11)          107.7874         0.326146   
    147. A(C   0,C  14,B  11)          174.5791         0.330722   
    148. A(N   7,C  14,C   8)           95.8007         0.388672   
    149. A(C   6,C  14,C   8)          137.6308         0.229981   
    150. A(C   3,C  14,C   8)          174.0179         0.275208   
    151. A(C   1,C  14,C   8)           43.4717         0.306825   
    152. A(C   0,C  14,C   8)          120.0926         0.311029   
    153. A(C   6,C  14,N   7)           41.9846         0.392241   
    154. A(C   3,C  14,N   7)           86.9002         0.489524   
    155. A(C   1,C  14,N   7)          139.1838         0.557529   
    156. A(C   0,C  14,N   7)          143.1739         0.566571   
    157. A(C   3,C  14,C   6)           44.9259         0.277426   
    158. A(F  10,N  15,B  11)           47.1170         0.340469   
    159. A(C   8,N  15,B  11)          126.2572         0.601588   
    160. A(C   5,N  15,B  11)          130.9255         0.508740   
    161. A(C   8,N  15,F  10)          163.3894         0.373647   
    162. A(C   5,N  15,F  10)           83.8391         0.322087   
    163. A(C   5,N  15,C   8)          101.1978         0.564120   
    164. D(C   8,C   1,C   0,C   3)     -5.5673         0.010000   
    165. D(C   8,C   1,C   0,C  14)     -7.7472         0.010000   
    166. D(C  14,C   1,C   0,H  16)    177.8190         0.010000   
    167. D(C  14,C   1,C   0,C   3)      2.1800         0.010000   
    168. D(C   8,C   1,C   0,H  16)    170.0718         0.010000   
    169. D(H  17,C   1,C   0,C   3)   -179.8304         0.010000   
    170. D(N   7,C   3,C   0,H  16)   -175.7829         0.027052   
    171. D(C   6,C   3,C   0,C   1)      3.7303         0.027052   
    172. D(I  12,C   3,C   0,C  14)    172.0800         0.027052   
    173. D(I  12,C   3,C   0,C   1)    170.2380         0.027052   
    174. D(C   6,C   3,C   0,C  14)      5.5723         0.027052   
    175. D(C   6,C   3,C   0,H  16)   -172.9398         0.027052   
    176. D(N   7,C   3,C   0,C  14)      2.7293         0.027052   
    177. D(N   7,C   3,C   0,C   1)      0.8873         0.027052   
    178. D(I  13,C   4,C   2,C   8)   -164.0946         0.046313   
    179. D(C   5,C   4,C   2,C   8)     -6.2803         0.046313   
    180. D(C   8,C   4,C   2,H  18)    177.4790         0.046313   
    181. D(C   5,C   4,C   2,H  18)    171.1988         0.046313   
    182. D(I  13,C   4,C   2,H  18)     13.3844         0.046313   
    183. D(C   8,C   5,C   4,I  13)    168.2022         0.017390   
    184. D(C   8,C   5,C   4,C   2)      5.1802         0.017390   
    185. D(H  19,C   5,C   4,C   2)   -176.6786         0.017390   
    186. D(N  15,C   5,C   4,C   2)      5.4495         0.017390   
    187. D(N  15,C   5,C   4,C   8)      0.2693         0.017390   
    188. D(N  15,C   5,C   4,I  13)    168.4715         0.017390   
    189. D(F   9,C   6,C   3,I  12)   -169.8569         0.039550   
    190. D(N   7,C   6,C   3,C  14)      0.7644         0.039550   
    191. D(N   7,C   6,C   3,I  12)   -171.6890         0.039550   
    192. D(N   7,C   6,C   3,C   0)     -3.8129         0.039550   
    193. D(C  14,C   6,C   3,C   0)     -4.5772         0.039550   
    194. D(F   9,C   6,C   3,C   0)     -1.9807         0.039550   
    195. D(C  14,C   6,C   3,N   7)     -0.7644         0.039550   
    196. D(F   9,C   6,C   3,N   7)      1.8321         0.039550   
    197. D(F   9,C   6,C   3,C  14)      2.5965         0.039550   
    198. D(F   9,N   7,C   3,C  14)    179.4744         0.010000   
    199. D(C  14,N   7,C   3,C   6)    178.5932         0.010000   
    200. D(B  11,N   7,C   6,F   9)      4.9665         0.040517   
    201. D(C   3,N   7,C   6,C  14)      1.3006         0.040517   
    202. D(F   9,N   7,C   6,C   3)    178.4908         0.040517   
    203. D(F   9,N   7,C   6,C  14)    179.7913         0.040517   
    204. D(C   3,N   7,C   6,H  20)    152.3624         0.040517   
    205. D(C   3,N   7,C   6,F   9)   -178.4908         0.040517   
    206. D(F   9,N   7,C   3,I  12)     15.4277         0.010000   
    207. D(C  14,N   7,C   3,C   0)     -4.1299         0.010000   
    208. D(C   6,N   7,C   3,C  14)   -178.5932         0.010000   
    209. D(B  11,N   7,C   6,C   3)   -176.5427         0.040517   
    210. D(C   6,N   7,C   3,I  12)     17.3601         0.010000   
    211. D(F   9,N   7,C   3,C   6)     -1.9324         0.010000   
    212. D(F   9,N   7,C   3,C   0)    175.3444         0.010000   
    213. D(C   6,N   7,C   3,C   0)    177.2768         0.010000   
    214. D(F   9,N   7,C   6,H  20)    -29.1468         0.040517   
    215. D(C   5,C   8,C   2,C   4)      4.9257         0.026092   
    216. D(B  11,C   8,C   1,C   0)      7.6759         0.059486   
    217. D(C   5,C   8,C   1,C   0)    -36.8565         0.059486   
    218. D(C   1,C   8,C   2,C   4)   -178.8939         0.026092   
    219. D(C   4,C   8,C   1,C   0)   -174.6487         0.059486   
    220. D(B  11,C   8,C   5,N  15)     -6.7655         0.010000   
    221. D(C   2,C   8,C   1,H  17)     -0.5722         0.059486   
    222. D(C   2,C   8,C   1,C   0)   -173.5199         0.059486   
    223. D(C   5,C   8,C   1,H  17)    136.0912         0.059486   
    224. D(C   5,C   8,C   1,C  14)    -42.8710         0.059486   
    225. D(B  11,C   8,C   5,C   4)    172.7848         0.010000   
    226. D(C   2,C   8,C   1,C  14)   -179.5344         0.059486   
    227. D(C   4,C   8,C   5,H  19)     -7.5178         0.010000   
    228. D(C   2,C   8,C   5,H  19)    -12.1612         0.010000   
    229. D(C   4,C   8,C   1,C  14)    179.3368         0.059486   
    230. D(C   2,C   8,C   5,N  15)    175.8063         0.010000   
    231. D(C   2,C   8,C   5,C   4)     -4.6434         0.010000   
    232. D(C   1,C   8,C   5,N  15)     38.8134         0.010000   
    233. D(C   1,C   8,C   4,C   2)      1.6735         0.010000   
    234. D(B  11,C   8,C   4,I  13)    -77.8823         0.010000   
    235. D(C   5,C   8,C   4,C   2)   -173.0649         0.010000   
    236. D(B  11,C   8,C   4,C   5)     -7.8296         0.010000   
    237. D(C   2,C   8,C   4,I  13)    103.0121         0.010000   
    238. D(C   2,C   8,C   4,C   5)    173.0649         0.010000   
    239. D(C   5,C   8,C   4,I  13)    -70.0527         0.010000   
    240. D(C   1,C   8,C   4,I  13)    104.6856         0.010000   
    241. D(C   1,C   8,C   5,H  19)   -149.1541         0.010000   
    242. D(C   1,C   8,C   4,C   5)    174.7384         0.010000   
    243. D(B  11,C   8,C   4,C   2)    179.1056         0.010000   
    244. D(C   1,C   8,C   5,C   4)   -141.6363         0.010000   
    245. D(C   4,C   8,C   5,N  15)   -179.5503         0.010000   
    246. D(N  15,C   8,C   2,C   4)      8.8161         0.026092   
    247. D(C  14,C   8,C   2,C   4)   -179.4561         0.026092   
    248. D(C   4,C   8,C   1,H  17)     -1.7010         0.059486   
    249. D(B  11,C   8,C   2,C   4)     -2.3177         0.026092   
    250. D(F  10,F   9,N   7,C  14)    -10.6634         0.010000   
    251. D(C   6,F   9,N   7,B  11)   -174.7146         0.010000   
    252. D(F  10,F   9,N   7,C   3)    171.9142         0.010000   
    253. D(C   6,F   9,N   7,C  14)    178.8933         0.010000   
    254. D(F  10,F   9,N   7,C   6)    170.4433         0.010000   
    255. D(C   6,F   9,N   7,C   3)      1.4710         0.010000   
    256. D(F  10,F   9,N   7,B  11)     -4.2713         0.010000   
    257. D(F  10,F   9,C   6,H  20)    158.6449         0.010000   
    258. D(F  10,F   9,C   6,C  14)    -17.1206         0.010000   
    259. D(F  10,F   9,C   6,N   7)    -17.0200         0.010000   
    260. D(F  10,F   9,C   6,C   3)    -19.2505         0.010000   
    261. D(N   7,F   9,C   6,H  20)    175.6648         0.010000   
    262. D(N   7,F   9,C   6,C  14)     -0.1006         0.010000   
    263. D(N   7,F   9,C   6,C   3)     -2.2305         0.010000   
    264. D(N  15,F  10,F   9,N   7)     15.9544         0.010000   
    265. D(B  11,F  10,F   9,C   6)     15.9864         0.010000   
    266. D(N  15,F  10,F   9,C   6)     28.1082         0.010000   
    267. D(N  15,F  10,F   9,B  11)     12.1218         0.010000   
    268. D(B  11,F  10,F   9,N   7)      3.8325         0.010000   
    269. D(C   8,B  11,N   7,F   9)   -170.4410         0.227857   
    270. D(F  10,B  11,N   7,C  14)   -164.8276         0.227857   
    271. D(F   9,B  11,N   7,C  14)    178.6589         0.227857   
    272. D(F  10,B  11,N   7,F   9)     16.5135         0.227857   
    273. D(F   9,B  11,N   7,C   6)     -6.6464         0.227857   
    274. D(C  14,B  11,N   7,C   6)    174.6947         0.227857   
    275. D(C   8,B  11,N   7,C   6)   -177.0874         0.227857   
    276. D(N  15,B  11,C   3,C   6)   -166.0798         0.010000   
    277. D(F  10,B  11,C   3,C   6)     16.4990         0.010000   
    278. D(F  10,B  11,C   3,C   0)   -167.2623         0.010000   
    279. D(C   8,B  11,C   3,I  12)   -159.9138         0.010000   
    280. D(N   7,B  11,C   8,C   1)     -5.6208         0.010000   
    281. D(C  14,B  11,N   7,F   9)   -178.6589         0.227857   
    282. D(F   9,B  11,C   3,C   0)    172.5999         0.010000   
    283. D(C   8,B  11,C   3,C   6)   -173.7764         0.010000   
    284. D(F  10,B  11,N   7,C   6)      9.8671         0.227857   
    285. D(F   9,B  11,C   3,I  12)     10.2237         0.010000   
    286. D(F   9,B  11,C   3,C   6)     -3.6389         0.010000   
    287. D(F  10,B  11,C   3,I  12)     30.3615         0.010000   
    288. D(C   8,B  11,N   7,C  14)      8.2179         0.227857   
    289. D(C   8,B  11,C   3,C   0)      2.4623         0.010000   
    290. D(N  15,B  11,F  10,F   9)    161.9993         0.048814   
    291. D(C  14,B  11,F  10,F   9)   -155.2526         0.048814   
    292. D(F   9,B  11,F  10,N  15)   -161.9993         0.048814   
    293. D(C   8,B  11,F  10,N  15)      8.7175         0.048814   
    294. D(N   7,B  11,F  10,N  15)   -178.8019         0.048814   
    295. D(N   7,B  11,F  10,F   9)    -16.8026         0.048814   
    296. D(C  14,B  11,F   9,N   7)      0.6272         0.205563   
    297. D(F  10,B  11,F   9,N   7)   -174.9417         0.205563   
    298. D(F  10,B  11,F   9,C   6)   -171.2366         0.205563   
    299. D(C   8,B  11,F   9,F  10)   -142.8774         0.205563   
    300. D(N  15,B  11,C   3,C   0)     10.1589         0.010000   
    301. D(C   8,B  11,F   9,N   7)     42.1808         0.205563   
    302. D(C   8,B  11,F   9,C   6)     45.8859         0.205563   
    303. D(N   7,B  11,F   9,F  10)    174.9417         0.205563   
    304. D(N   7,B  11,F   9,C   6)      3.7051         0.205563   
    305. D(F  10,B  11,C   8,C   1)    172.0913         0.010000   
    306. D(F   9,B  11,C   8,N  15)    118.4861         0.010000   
    307. D(F   9,B  11,C   8,C  14)    -46.3741         0.010000   
    308. D(F   9,B  11,C   8,C   5)    128.1157         0.010000   
    309. D(C  14,B  11,F   9,C   6)      4.3323         0.205563   
    310. D(F   9,B  11,C   8,C   4)    133.9171         0.010000   
    311. D(F   9,B  11,C   8,C   2)    135.6755         0.010000   
    312. D(F   9,B  11,C   8,C   1)    -47.8111         0.010000   
    313. D(C   8,B  11,F  10,F   9)    170.7168         0.048814   
    314. D(N   7,B  11,C   8,N  15)    160.6764         0.010000   
    315. D(N   7,B  11,C   8,C  14)     -4.1838         0.010000   
    316. D(N   7,B  11,C   8,C   5)    170.3060         0.010000   
    317. D(C  14,B  11,F  10,N  15)     42.7481         0.048814   
    318. D(N   7,B  11,C   8,C   4)    176.1074         0.010000   
    319. D(N   7,B  11,C   8,C   2)    177.8658         0.010000   
    320. D(C   6,C  14,B  11,C   8)   -173.5196         0.010000   
    321. D(C   6,C  14,B  11,N   7)     -3.0763         0.010000   
    322. D(C   1,C  14,B  11,N  15)      7.6225         0.010000   
    323. D(C   1,C  14,B  11,F  10)    -35.5723         0.010000   
    324. D(C   1,C  14,B  11,F   9)    170.4163         0.010000   
    325. D(C   1,C  14,B  11,C   8)      1.4006         0.010000   
    326. D(C   1,C  14,B  11,N   7)    171.8440         0.010000   
    327. D(C   0,C  14,B  11,F  10)    177.4287         0.010000   
    328. D(C   0,C  14,B  11,F   9)     23.4173         0.010000   
    329. D(C   0,C  14,B  11,C   8)   -145.5984         0.010000   
    330. D(C   3,C  14,C   8,C   2)    -59.5040         0.010000   
    331. D(C   3,C  14,C   8,C   1)    -60.2763         0.010000   
    332. D(C   1,C  14,C   8,N  15)    174.5372         0.010000   
    333. D(C   1,C  14,C   8,C   5)    175.0935         0.010000   
    334. D(C   1,C  14,C   8,C   4)   -175.2709         0.010000   
    335. D(C   1,C  14,C   8,C   2)      0.7723         0.010000   
    336. D(C   0,C  14,C   8,N  15)    169.0617         0.010000   
    337. D(C   0,C  14,C   8,B  11)    176.4631         0.010000   
    338. D(C   0,C  14,C   8,C   5)    169.6180         0.010000   
    339. D(C   0,C  14,C   8,C   4)    179.2536         0.010000   
    340. D(C   0,C  14,C   8,C   1)     -5.4755         0.010000   
    341. D(C   3,C  14,N   7,F   9)   -177.7207         1.331039   
    342. D(C   3,C  14,N   7,C   6)      1.1209         1.331039   
    343. D(C   1,C  14,N   7,F   9)     -6.3513         1.331039   
    344. D(C   1,C  14,N   7,C   6)    172.4903         1.331039   
    345. D(C   1,C  14,N   7,C   3)    171.3694         1.331039   
    346. D(C   0,C  14,N   7,F   9)   -170.6269         1.331039   
    347. D(C   0,C  14,N   7,C   6)      8.2148         1.331039   
    348. D(C   0,C  14,N   7,C   3)      7.0939         1.331039   
    349. D(C   3,C  14,C   6,F   9)   -178.2436         0.010000   
    350. D(C   3,C  14,C   6,N   7)   -178.4150         0.010000   
    351. D(C   1,C  14,C   6,H  20)     84.0948         0.010000   
    352. D(C   1,C  14,C   6,F   9)   -105.8681         0.010000   
    353. D(C   1,C  14,C   6,N   7)   -106.0395         0.010000   
    354. D(C   1,C  14,C   6,C   3)     72.3755         0.010000   
    355. D(C   0,C  14,C   6,H  20)     15.1470         0.010000   
    356. D(C   0,C  14,C   6,F   9)   -174.8159         0.010000   
    357. D(C   0,C  14,C   6,N   7)   -174.9873         0.010000   
    358. D(C   0,C  14,C   6,C   3)      3.4276         0.010000   
    359. D(N   7,C  14,C   3,C   0)    174.9125         0.010000   
    360. D(C   6,C  14,C   3,I  12)    127.0994         0.010000   
    361. D(C   0,C  14,N   7,B  11)   -176.2029         1.331039   
    362. D(C   6,C  14,C   3,N   7)      1.0618         0.010000   
    363. D(C   6,C  14,C   3,C   0)    175.9743         0.010000   
    364. D(C   1,C  14,C   3,I  12)    -46.2127         0.010000   
    365. D(C   1,C  14,N   7,B  11)    -11.9274         1.331039   
    366. D(C   1,C  14,C   3,N   7)   -172.2503         0.010000   
    367. D(C   1,C  14,C   3,C   6)   -173.3121         0.010000   
    368. D(C   1,C  14,C   3,C   0)      2.6622         0.010000   
    369. D(C   0,C  14,C   8,C   2)     -4.7032         0.010000   
    370. D(C   0,C  14,C   3,I  12)    -48.8749         0.010000   
    371. D(C   0,C  14,C   3,N   7)   -174.9125         0.010000   
    372. D(C   0,C  14,C   3,C   6)   -175.9743         0.010000   
    373. D(N   7,C  14,C   1,C   0)   -170.3945         0.034721   
    374. D(C   6,C  14,C   1,H  17)    -73.4176         0.034721   
    375. D(C   6,C  14,C   1,C   8)    105.1431         0.034721   
    376. D(C   6,C  14,C   1,C   0)    -69.9920         0.034721   
    377. D(C   1,C  14,C   8,B  11)   -178.0613         0.010000   
    378. D(C   3,C  14,C   1,H  17)     -5.7081         0.034721   
    379. D(C   3,C  14,C   1,C   8)    172.8526         0.034721   
    380. D(C   3,C  14,C   1,C   0)     -2.2825         0.034721   
    381. D(C   0,C  14,B  11,N   7)     24.8450         0.010000   
    382. D(C   0,C  14,C   1,H  17)     -3.4256         0.034721   
    383. D(C   0,C  14,C   1,C   8)    175.1351         0.034721   
    384. D(N   7,C  14,C   0,C   3)     -8.4953         0.041673   
    385. D(C   0,C  14,B  11,N  15)   -139.3765         0.010000   
    386. D(N   7,C  14,C   0,C   1)    169.5158         0.041673   
    387. D(C   6,C  14,C   0,H  16)     13.2081         0.041673   
    388. D(C   6,C  14,C   0,C   3)     -2.8993         0.041673   
    389. D(C   6,C  14,C   0,C   1)    175.1118         0.041673   
    390. D(C   3,C  14,C   0,H  16)     16.1074         0.041673   
    391. D(C   3,C  14,C   0,C   1)    178.0111         0.041673   
    392. D(C   1,C  14,C   0,H  16)   -161.9037         0.041673   
    393. D(C   1,C  14,C   0,C   3)   -178.0111         0.041673   
    394. D(C   5,N  15,B  11,F   9)     53.8899         0.123913   
    395. D(C   5,N  15,B  11,C   8)   -162.6737         0.123913   
    396. D(C   5,N  15,B  11,N   7)    177.1103         0.123913   
    397. D(C   8,N  15,F  10,B  11)    -73.1563         0.010000   
    398. D(C   8,N  15,F  10,F   9)    -86.0752         0.010000   
    399. D(C   5,N  15,F  10,B  11)    178.0943         0.010000   
    400. D(F  10,N  15,C   8,B  11)     60.4250         0.701603   
    401. D(F  10,N  15,C   8,C   5)   -106.3142         0.701603   
    402. D(F  10,N  15,C   8,C   4)   -105.9949         0.701603   
    403. D(F  10,N  15,C   8,C   2)   -111.8853         0.701603   
    404. D(F  10,N  15,C   8,C   1)     78.3249         0.701603   
    405. D(C   5,N  15,C   8,C  14)    179.3855         0.701603   
    406. D(C   5,N  15,C   8,B  11)    166.7393         0.701603   
    407. D(C   5,N  15,C   8,C   4)      0.3194         0.701603   
    408. D(C   5,N  15,C   8,C   2)     -5.5710         0.701603   
    409. D(C   5,N  15,F  10,F   9)    165.1755         0.010000   
    410. D(C   5,N  15,C   8,C   1)   -175.3609         0.701603   
    411. D(B  11,N  15,C   5,C   4)    165.3724         0.071147   
    412. D(F  10,N  15,C   5,H  19)    -10.3658         0.071147   
    413. D(B  11,N  15,F  10,F   9)    -12.9188         0.010000   
    414. D(F  10,N  15,C   5,C   8)    163.9814         0.071147   
    415. D(F  10,N  15,C   5,C   4)    163.5242         0.071147   
    416. D(C   8,N  15,C   5,H  19)   -174.3472         0.071147   
    417. D(C   5,N  15,B  11,F  10)     -2.5080         0.123913   
    418. D(C   8,N  15,C   5,C   4)     -0.4572         0.071147   
    419. D(C   8,N  15,B  11,C  14)    -13.0477         0.123913   
    420. D(C   8,N  15,B  11,F  10)    160.1657         0.123913   
    421. D(C   8,N  15,B  11,F   9)   -143.4363         0.123913   
    422. D(C   8,N  15,B  11,N   7)    -20.2159         0.123913   
    423. D(C   5,N  15,B  11,C  14)   -175.7214         0.123913   
    -----------------------------------------------------------------

Number of atoms                         .... 21
Number of degrees of freedom            .... 423


         *************************************************************
         *                GEOMETRY OPTIMIZATION CYCLE   1            *
         *************************************************************
---------------------------------
CARTESIAN COORDINATES (ANGSTROEM)
---------------------------------
  C    -4.088304    2.932418   -0.071998
  C    -2.365839    2.884032   -0.144285
  C    -0.299369    2.986564   -0.082554
  C    -4.861814    1.743996   -0.064168
  C     0.637427    2.038270   -0.089465
  C    -0.075351    0.759885    0.023251
  C    -4.565527    0.399465   -0.039846
  N    -3.279763    0.847718   -0.119754
  C    -1.351733    2.019172   -0.122426
  F    -2.999342   -0.712475   -0.046908
  F    -1.440980   -0.809848   -0.367432
  B    -2.291555    0.213657   -0.208175
  I    -6.869077    1.848192    0.323272
  I     2.616939    1.958459    0.329749
  C    -3.278668    1.822856   -0.169534
  N    -1.334585    0.984087   -0.026479
  H    -4.794206    3.742867    0.034152
  H    -2.275101    3.963002   -0.122875
  H     0.445782    3.768565   -0.004415
  H     0.872652    0.201110    0.058698
  H    -5.534520   -0.077430   -0.044024

----------------------------
CARTESIAN COORDINATES (A.U.)
----------------------------
  NO LB    ZA    FRAG    MASS        X           Y           Z
   0 C   6.0000    0    12.011   -7.725775    5.541467   -0.136057
   1 C   6.0000    0    12.011   -4.470788    5.450031   -0.272659
   2 C   6.0000    0    12.011   -0.565725    5.643788   -0.156004
   3 C   6.0000    0    12.011   -9.187497    3.295675   -0.121260
   4 C   6.0000    0    12.011    1.204562    3.851772   -0.169064
   5 C   6.0000    0    12.011   -0.142393    1.435975    0.043938
   6 C   6.0000    0    12.011   -8.627596    0.754879   -0.075298
   7 N   7.0000    0    14.007   -6.197854    1.601955   -0.226302
   8 C   6.0000    0    12.011   -2.554405    3.815682   -0.231352
   9 F   9.0000    0    18.998   -5.667935   -1.346383   -0.088643
  10 F   9.0000    0    18.998   -2.723058   -1.530391   -0.694346
  11 B   5.0000    0    10.810   -4.330411    0.403753   -0.393394
  12 I  53.0000    0   126.900  -12.980674    3.492577    0.610896
  13 I  53.0000    0   126.900    4.945298    3.700951    0.623135
  14 C   6.0000    0    12.011   -6.195785    3.444699   -0.320373
  15 N   7.0000    0    14.007   -2.522000    1.859655   -0.050038
  16 H   1.0000    0     1.008   -9.059736    7.072994    0.064538
  17 H   1.0000    0     1.008   -4.299318    7.488988   -0.232200
  18 H   1.0000    0     1.008    0.842406    7.121556   -0.008343
  19 H   1.0000    0     1.008    1.649073    0.380043    0.110923
  20 H   1.0000    0     1.008  -10.458727   -0.146321   -0.083193

      -----------------------------------------------------------      
     |                   =====================                   |     
     |                           x T B                           |     
     |                   =====================                   |     
     |                         S. Grimme                         |     
     |          Mulliken Center for Theoretical Chemistry        |     
     |                    University of Bonn                     |     
      -----------------------------------------------------------      

   * xtb version 6.7.1 (edcfbbe) compiled by 'albert@albert-system' on 2024-07-22

   xtb is free software: you can redistribute it and/or modify it under
   the terms of the GNU Lesser General Public License as published by
   the Free Software Foundation, either version 3 of the License, or
   (at your option) any later version.
   
   xtb is distributed in the hope that it will be useful,
   but WITHOUT ANY WARRANTY; without even the implied warranty of
   MERCHANTABILITY or FITNESS FOR A PARTICULAR PURPOSE.  See the
   GNU Lesser General Public License for more details.
   
   Cite this work as:
   * C. Bannwarth, E. Caldeweyher, S. Ehlert, A. Hansen, P. Pracht,
     J. Seibert, S. Spicher, S. Grimme, WIREs Comput. Mol. Sci., 2020, 11,
     e01493. DOI: 10.1002/wcms.1493
   
   for GFN2-xTB:
   * C. Bannwarth, S. Ehlert and S. Grimme., J. Chem. Theory Comput., 2019,
     15, 1652-1671. DOI: 10.1021/acs.jctc.8b01176
   for GFN1-xTB:
   * S. Grimme, C. Bannwarth, P. Shushkov, J. Chem. Theory Comput., 2017,
     13, 1989-2009. DOI: 10.1021/acs.jctc.7b00118
   for GFN0-xTB:
   * P. Pracht, E. Caldeweyher, S. Ehlert, S. Grimme, ChemRxiv, 2019, preprint.
     DOI: 10.26434/chemrxiv.8326202.v1
   for GFN-FF:
   * S. Spicher and S. Grimme, Angew. Chem. Int. Ed., 2020, 59, 15665-15673.
     DOI: 10.1002/anie.202004239
   
   for ALPB and GBSA implicit solvation:
   * S. Ehlert, M. Stahn, S. Spicher, S. Grimme, J. Chem. Theory Comput.,
     2021, 17, 4250-4261. DOI: 10.1021/acs.jctc.1c00471
   
   for ddCOSMO and CPCM-X implicit solvation:
   * M. Stahn, S. Ehlert, S. Grimme, J. Phys. Chem. A,
     2023, XX, XXXX-XXXX. DOI: 10.1021/acs.jpca.3c04382
   
   for DFT-D4:
   * E. Caldeweyher, C. Bannwarth and S. Grimme, J. Chem. Phys., 2017,
     147, 034112. DOI: 10.1063/1.4993215
   * E. Caldeweyher, S. Ehlert, A. Hansen, H. Neugebauer, S. Spicher,
     C. Bannwarth and S. Grimme, J. Chem. Phys., 2019, 150, 154122.
     DOI: 10.1063/1.5090222
   * E. Caldeweyher, J.-M. Mewes, S. Ehlert and S. Grimme, Phys. Chem. Chem. Phys.
     2020, 22, 8499-8512. DOI: 10.1039/D0CP00502A
   
   for sTDA-xTB:
   * S. Grimme and C. Bannwarth, J. Chem. Phys., 2016, 145, 054103.
     DOI: 10.1063/1.4959605
   
   in the mass-spec context:
   * V. Asgeirsson, C. Bauer and S. Grimme, Chem. Sci., 2017, 8, 4879.
     DOI: 10.1039/c7sc00601b
   * J. Koopman and S. Grimme, ACS Omega 2019, 4, 12, 15120-15133.
     DOI: 10.1021/acsomega.9b02011
   
   for metadynamics refer to:
   * S. Grimme, J. Chem. Theory Comput., 2019, 155, 2847-2862
     DOI: 10.1021/acs.jctc.9b00143
   
   for SPH calculations refer to:
   * S. Spicher and S. Grimme, J. Chem. Theory Comput., 2021, 17, 1701-1714
     DOI: 10.1021/acs.jctc.0c01306
   
   for ONIOM refer to:
   * C. Plett, A. Katbashev, S. Ehlert, S. Grimme, M. Bursch,
     Phys. Chem. Chem. Phys., 2023, 25, 17860-17868. DOI: 10.1039/D3CP02178E
   
   for DIPRO refer to:
   * J. Kohn, N. Gildemeister, S. Grimme, D. Fazzi, A. Hansen,
     J. Chem. Phys., 2023, just accepted.
   
   for PTB refer to:
   * S. Grimme, M. Mueller, A. Hansen, J. Chem. Phys., 2023, 158, 124111.
     DOI: 10.1063/5.0137838
   
   with help from (in alphabetical order)
   P. Atkinson, C. Bannwarth, F. Bohle, G. Brandenburg, E. Caldeweyher
   M. Checinski, S. Dohm, S. Ehlert, S. Ehrlich, I. Gerasimov, C. Hölzer
   A. Katbashev, J. Kohn, J. Koopman, C. Lavigne, S. Lehtola, F. März, M. Müller,
   F. Musil, H. Neugebauer, J. Pisarek, C. Plett, P. Pracht, F. Pultar,
   J. Seibert, P. Shushkov, S. Spicher, M. Stahn, M. Steiner, T. Strunk,
   J. Stückrath, T. Rose, and J. Unsleber
   
 * started run on 2025/10/28 at 14:26:10.667     
   ID    Z sym.   atoms
    1    6 C      1-7, 9, 15
    2    7 N      8, 16
    3    9 F      10, 11
    4    5 B      12
    5   53 I      13, 14
    6    1 H      17-21

           -------------------------------------------------
          |                Calculation Setup                |
           -------------------------------------------------

          program call               : otool_xtb Iodo_opt_XTB.xyz --grad -c 0 -u 0 -P 1 --namespace Iodo_opt --input Iodo_opt_XTB.input.tmp --acc 0.200000
          calculation namespace      : Iodo_opt
          coordinate file            : Iodo_opt_XTB.xyz
          omp threads                :                     1


           -------------------------------------------------
          |                 G F N 2 - x T B                 |
           -------------------------------------------------

        Reference                      10.1021/acs.jctc.8b01176
      * Hamiltonian:
        H0-scaling (s, p, d)           1.850000    2.230000    2.230000
        zeta-weighting                 0.500000
      * Dispersion:
        s8                             2.700000
        a1                             0.520000
        a2                             5.000000
        s9                             5.000000
      * Repulsion:
        kExp                           1.500000    1.000000
        rExp                           1.000000
      * Coulomb:
        alpha                          2.000000
        third order                    shell-resolved
        anisotropic                    true
        a3                             3.000000
        a5                             4.000000
        cn-shift                       1.200000
        cn-exp                         4.000000
        max-rad                        5.000000


          ...................................................
          :                      SETUP                      :
          :.................................................:
          :  # basis functions                  81          :
          :  # atomic orbitals                  79          :
          :  # shells                           39          :
          :  # electrons                        82          :
          :  max. iterations                   250          :
          :  Hamiltonian                  GFN2-xTB          :
          :  restarted?                      false          :
          :  GBSA solvation                  false          :
          :  PC potential                    false          :
          :  electronic temp.          300.0000000     K    :
          :  accuracy                    0.2000000          :
          :  -> integral cutoff          0.3198970E+02      :
          :  -> integral neglect         0.2000000E-08      :
          :  -> SCF convergence          0.2000000E-06 Eh   :
          :  -> wf. convergence          0.2000000E-04 e    :
          :  Broyden damping             0.4000000          :
          :  net charge                          0          :
          :  unpaired electrons                  0          :
          ...................................................

 iter      E             dE          RMSdq      gap      omega  full diag
   1    -45.0557408 -0.450557E+02  0.920E+00    1.24       0.0  T
   2    -45.4216211 -0.365880E+00  0.773E+00    0.38       1.0  T
   3    -45.6150748 -0.193454E+00  0.439E+00    1.30       1.0  T
   4    -45.5019661  0.113109E+00  0.299E+00    0.35       1.0  T
   5    -45.6903267 -0.188361E+00  0.117E+00    0.74       1.0  T
   6    -45.7087584 -0.184317E-01  0.709E-01    0.58       1.0  T
   7    -45.7096424 -0.884036E-03  0.465E-01    0.43       1.0  T
   8    -45.7113352 -0.169278E-02  0.278E-01    0.51       1.0  T
   9    -45.7118275 -0.492292E-03  0.177E-01    0.49       1.0  T
  10    -45.7119264 -0.989193E-04  0.112E-01    0.49       1.0  T
  11    -45.7119885 -0.620724E-04  0.715E-02    0.49       1.0  T
  12    -45.7120205 -0.320553E-04  0.240E-02    0.50       1.0  T
  13    -45.7120289 -0.841434E-05  0.108E-02    0.50       2.0  T
  14    -45.7120298 -0.889355E-06  0.451E-03    0.50       4.8  T
  15    -45.7120299 -0.606861E-07  0.176E-03    0.50      12.4  T
  16    -45.7120299 -0.191623E-07  0.732E-04    0.50      29.8  T
  17    -45.7120299 -0.289891E-08  0.466E-04    0.50      46.8  T
  18    -45.7120299 -0.400490E-09  0.206E-04    0.50     105.8  T
  19    -45.7120299 -0.487219E-10  0.110E-04    0.50     198.4  T
  20    -45.7120299 -0.851799E-10  0.446E-05    0.50     489.7  T

   *** convergence criteria satisfied after 20 iterations ***

         #    Occupation            Energy/Eh            Energy/eV
      -------------------------------------------------------------
         1        2.0000           -0.8888890             -24.1879
       ...           ...                  ...                  ...
        35        2.0000           -0.4235604             -11.5257
        36        2.0000           -0.4128446             -11.2341
        37        2.0000           -0.4099785             -11.1561
        38        2.0000           -0.4046033             -11.0098
        39        2.0000           -0.3955050             -10.7622
        40        2.0000           -0.3845839             -10.4651
        41        1.9999           -0.3357865              -9.1372 (HOMO)
        42        0.0001           -0.3172781              -8.6336 (LUMO)
        43                         -0.2590462              -7.0490
        44                         -0.2310677              -6.2877
        45                         -0.2192404              -5.9658
        46                         -0.2050378              -5.5794
       ...                                ...                  ...
        79                          2.6802082              72.9322
      -------------------------------------------------------------
                  HL-Gap            0.0185084 Eh            0.5036 eV
             Fermi-level           -0.3265323 Eh           -8.8854 eV

 SCC (total)                   0 d,  0 h,  0 min,  0.031 sec
 SCC setup                      ...        0 min,  0.000 sec (  0.568%)
 Dispersion                     ...        0 min,  0.000 sec (  0.571%)
 classical contributions        ...        0 min,  0.000 sec (  0.077%)
 integral evaluation            ...        0 min,  0.006 sec ( 18.549%)
 iterations                     ...        0 min,  0.015 sec ( 47.195%)
 molecular gradient             ...        0 min,  0.010 sec ( 32.434%)
 printout                       ...        0 min,  0.000 sec (  0.536%)

         :::::::::::::::::::::::::::::::::::::::::::::::::::::
         ::                     SUMMARY                     ::
         :::::::::::::::::::::::::::::::::::::::::::::::::::::
         :: total energy             -44.469564444854 Eh    ::
         :: gradient norm              1.811676876394 Eh/a0 ::
         :: HOMO-LUMO gap              0.503639343875 eV    ::
         ::.................................................::
         :: SCC energy               -45.712124391406 Eh    ::
         :: -> isotropic ES            0.111151532615 Eh    ::
         :: -> anisotropic ES          0.009399732429 Eh    ::
         :: -> anisotropic XC         -0.013724387473 Eh    ::
         :: -> dispersion             -0.026446040591 Eh    ::
         :: repulsion energy           1.242559946552 Eh    ::
         :: add. restraining           0.000000000000 Eh    ::
         :: total charge              -0.000000000000 e     ::
         :::::::::::::::::::::::::::::::::::::::::::::::::::::


Property printout bound to 'properties.out'

           -------------------------------------------------
          | TOTAL ENERGY              -44.469564444854 Eh   |
          | GRADIENT NORM               1.811676876394 Eh/α |
          | HOMO-LUMO GAP               0.503639343875 eV   |
           -------------------------------------------------

------------------------------------------------------------------------
 * finished run on 2025/10/28 at 14:26:10.709     
------------------------------------------------------------------------
 total:
 * wall-time:     0 d,  0 h,  0 min,  0.042 sec
 *  cpu-time:     0 d,  0 h,  0 min,  0.041 sec
 * ratio c/w:     0.982 speedup
 SCF:
 * wall-time:     0 d,  0 h,  0 min,  0.032 sec
 *  cpu-time:     0 d,  0 h,  0 min,  0.031 sec
 * ratio c/w:     0.977 speedup


-------------------------   --------------------
FINAL SINGLE POINT ENERGY       -44.469564444850
-------------------------   --------------------


-------------
DIPOLE MOMENT
-------------
                                X             Y             Z
Total Dipole Moment    :     -0.40700       1.66800      -0.54900
                        -----------------------------------------
Magnitude (a.u.)       :      1.80257
Magnitude (Debye)      :      4.58178


------------------
CARTESIAN GRADIENT
------------------

   1   C   :    0.144835114   -0.009053696   -0.020888776
   2   C   :    0.044918320   -0.090800602    0.018879445
   3   C   :   -0.071170123   -0.015991542   -0.003459292
   4   C   :    0.164724754   -0.020704593   -0.024319250
   5   C   :    0.009678039    0.116090992   -0.013295031
   6   C   :   -0.246884301    0.007741747   -0.003946277
   7   C   :    0.075333316   -0.078143346    0.003575313
   8   N   :    0.335462957    0.556414505    0.004943027
   9   C   :    0.002812663   -0.790187429    0.023280167
  10   F   :    0.298502387    0.506743942   -0.130492460
  11   F   :   -0.266899022    0.180570102    0.114940569
  12   B   :   -0.279589386    0.277254005    0.072258165
  13   I   :    0.086349113   -0.028634236   -0.011921435
  14   I   :   -0.042777458   -0.010442380   -0.001650858
  15   C   :   -0.064142544   -1.074006384    0.081038291
  16   N   :   -0.236247795    0.427115680   -0.130069121
  17   H   :   -0.028908494   -0.013553493    0.001925483
  18   H   :    0.004862039    0.009459423    0.012107672
  19   H   :    0.052281983   -0.042867250    0.005557700
  20   H   :    0.044374498    0.050722607    0.002000630
  21   H   :   -0.027516059    0.042271948   -0.000463964

Difference to translation invariance:
           :   -0.0000000000   -0.0000000000    0.0000000000

Difference to rotation invariance:
           :    0.0000000143    0.0000000052   -0.0000001746

Norm of the Cartesian gradient     ...    1.8116768764
RMS gradient                       ...    0.2282498319
MAX gradient                       ...    1.0740063843
------------------------------------------------------------------------------
                         ORCA GEOMETRY RELAXATION STEP
------------------------------------------------------------------------------

Reading the OPT-File                    .... done
Getting information on internals        .... done
Copying old internal coords+grads       .... done
Making the new internal coordinates     .... (2022 redundants) done
Validating the new internal coordinates .... (2022 redundants) done
Calculating the B-matrix                .... done
Calculating the G,G- and P matrices     .... done
Transforming gradient to internals      .... done
Projecting the internal gradient        .... done
Number of atoms                         ....  21
Number of internal coordinates          .... 423
Current Energy                          ....   -44.469564445 Eh
Current gradient norm                   ....     1.811676876 Eh/bohr
Maximum allowed component of the step   ....  0.300
Current trust radius                    ....  0.300
Evaluating the initial hessian          ....  (Almloef) done
Projecting the Hessian                  .... done
Forming the augmented Hessian           .... done
Diagonalizing the augmented Hessian     .... done
Last element of RFO vector              ....  0.798194391
Lowest eigenvalues of augmented Hessian:
 -0.716730845  0.013232979  0.015489376  0.016209900  0.022269441
Length of the computed step             ....  0.754703326
Warning: the length of the step is outside the trust region - taking restricted step instead
The input lambda is                     ....     0.012218
   iter:   5  x=   -0.098723  g=   54.157126 f(x)=     4.846785
   iter:  10  x=   -2.264951  g=    0.153551 f(x)=     0.084645
   iter:  15  x=   -2.613777  g=    0.056146 f(x)=     0.000000
The output lambda is                    ....    -2.613777 (16 iterations)
The final length of the internal step   ....  0.300000000
Converting the step to Cartesian space:
 Initial RMS(Int)=    0.0145864991
Transforming coordinates:
 Iter   0:  RMS(Cart)=    0.0384610574 RMS(Int)=    0.0145695452
done
Storing new coordinates                 .... done

                                .--------------------.
          ----------------------|Geometry convergence|-------------------------
          Item                value                   Tolerance       Converged
          ---------------------------------------------------------------------
          RMS gradient        0.0473680194            0.0001000000      NO
          MAX gradient        0.2834023871            0.0003000000      NO
          RMS step            0.0145864991            0.0020000000      NO
          MAX step            0.0896620167            0.0040000000      NO
          -------------------------------------------------------------------------
          ........................................................
          Max(Bonds)      0.0474      Max(Angles)    2.65
          Max(Dihed)        0.82      Max(Improp)    0.00
          ---------------------------------------------------------------------

The optimization has not yet converged - more geometry cycles are needed


    ---------------------------------------------------------------------------
                         Redundant Internal Coordinates
                            (Angstroem and degrees)

        Definition                    Value    dE/dq     Step     New-Value
    ----------------------------------------------------------------------------
     1. B(C   1,C   0)                1.7247 -0.041741  0.0090    1.7337   
     2. B(C   3,C   0)                1.4180 -0.065165  0.0105    1.4285   
     3. B(C   4,C   2)                1.3330 -0.057557  0.0095    1.3425   
     4. B(C   5,C   4)                1.4680 -0.028433  0.0041    1.4721   
     5. B(C   6,C   3)                1.3770 -0.141263  0.0218    1.3988   
     6. B(N   7,C   6)                1.3640  0.034451 -0.0034    1.3606   
     7. B(N   7,C   3)                1.8191 -0.155519  0.0258    1.8449   
     8. B(C   8,C   4)                1.9895 -0.061277  0.0112    2.0007   
     9. B(C   8,C   1)                1.3330 -0.138279  0.0233    1.3563   
    10. B(C   8,C   5)                1.7989 -0.173933  0.0288    1.8277   
    11. B(C   8,C   2)                1.4300 -0.003448  0.0009    1.4309   
    12. B(F   9,C   6)                1.9208 -0.223424  0.0396    1.9604   
    13. B(F   9,N   7)                1.5869 -0.176754  0.0322    1.6191   
    14. B(F  10,F   9)                1.5940 -0.226891  0.0382    1.6321   
    15. B(B  11,N   7)                1.1775 -0.128515  0.0241    1.2016   
    16. B(B  11,F  10)                1.3403 -0.161896  0.0273    1.3676   
    17. B(B  11,F   9)                1.1767 -0.217895  0.0346    1.2113   
    18. B(B  11,C   8)                2.0373 -0.271121  0.0442    2.0815   
    19. B(I  12,C   3)                2.0470 -0.088388  0.0167    2.0637   
    20. B(I  13,C   4)                2.0250 -0.041747  0.0078    2.0328   
    21. B(C  14,C   8)                1.9375 -0.143961  0.0259    1.9633   
    22. B(C  14,N   7)                0.9764 -0.282574  0.0422    1.0186   
    23. B(C  14,C   6)                1.9232 -0.154506  0.0245    1.9477   
    24. B(C  14,C   3)                1.5886 -0.079003  0.0145    1.6031   
    25. B(C  14,C   1)                1.4000 -0.076577  0.0127    1.4127   
    26. B(C  14,B  11)                1.8882 -0.283402  0.0474    1.9357   
    27. B(C  14,C   0)                1.3770 -0.044875  0.0078    1.3848   
    28. B(N  15,B  11)                1.2419 -0.064972  0.0136    1.2555   
    29. B(N  15,F  10)                1.8291 -0.129870  0.0246    1.8538   
    30. B(N  15,C   8)                1.0397 -0.282369  0.0423    1.0819   
    31. B(N  15,C   5)                1.2800 -0.071476  0.0129    1.2929   
    32. B(H  16,C   0)                1.0800  0.008913 -0.0016    1.0784   
    33. B(H  17,C   1)                1.0830  0.010071 -0.0018    1.0812   
    34. B(H  18,C   2)                1.0830  0.005420 -0.0010    1.0820   
    35. B(H  19,C   5)                1.1010  0.012530 -0.0022    1.0988   
    36. B(H  20,C   6)                1.0800  0.006024 -0.0011    1.0789   
    37. A(C   3,C   0,C  14)           69.26 -0.007427    0.20     69.46   
    38. A(C   1,C   0,C  14)           52.21 -0.015811    0.22     52.43   
    39. A(C  14,C   0,H  16)          174.83 -0.017941    0.39    175.22   
    40. A(C   1,C   0,H  16)          132.68  0.032773   -0.59    132.09   
    41. A(C   1,C   0,C   3)          121.43 -0.023225    0.43    121.86   
    42. A(C   3,C   0,H  16)          105.77 -0.009903    0.17    105.95   
    43. A(C   8,C   1,H  17)          125.62 -0.005237    0.04    125.66   
    44. A(C  14,C   1,H  17)          144.11  0.001267   -0.07    144.04   
    45. A(C   0,C   1,C  14)           51.01 -0.000693   -0.03     50.98   
    46. A(C   0,C   1,H  17)           93.15  0.001805   -0.04     93.10   
    47. A(C   8,C   1,C  14)           90.26  0.003957    0.03     90.29   
    48. A(C   0,C   1,C   8)          141.02  0.003755   -0.00    141.01   
    49. A(C   4,C   2,H  18)           91.75 -0.137951    2.65     94.40   
    50. A(C   4,C   2,C   8)           92.05 -0.010319    0.23     92.28   
    51. A(C   6,C   3,C  14)           80.52 -0.007857    0.08     80.59   
    52. A(C   0,C   3,I  12)          119.56 -0.000705    0.04    119.59   
    53. A(C   0,C   3,N   7)           86.47 -0.058311    0.86     87.33   
    54. A(N   7,C   3,C  14)           32.41 -0.067444    1.04     33.45   
    55. A(N   7,C   3,I  12)          152.09  0.060733   -0.93    151.16   
    56. A(C   6,C   3,I  12)          104.91  0.001767    0.03    104.94   
    57. A(C   6,C   3,N   7)           48.11  0.059553   -0.96     47.15   
    58. A(C   0,C   3,C  14)           54.16  0.008663   -0.17     53.98   
    59. A(I  12,C   3,C  14)          170.84  0.009103   -0.15    170.69   
    60. A(C   0,C   3,C   6)          134.51  0.001324   -0.10    134.41   
    61. A(C   2,C   4,I  13)          135.56 -0.013918    0.26    135.82   
    62. A(C   5,C   4,C   8)           60.49 -0.046096    0.80     61.29   
    63. A(C   2,C   4,C   8)           45.91  0.015892   -0.30     45.61   
    64. A(C   8,C   4,I  13)          168.64 -0.009375    0.20    168.84   
    65. A(C   2,C   4,C   5)          106.13 -0.029908    0.49    106.63   
    66. A(C   5,C   4,I  13)          115.11  0.040591   -0.69    114.42   
    67. A(N  15,C   5,H  19)          159.59  0.077218   -1.33    158.26   
    68. A(C   4,C   5,N  15)          108.79 -0.041171    0.60    109.40   
    69. A(C   8,C   5,N  15)           34.54 -0.072359    1.10     35.64   
    70. A(C   4,C   5,C   8)           74.26  0.031139   -0.50     73.76   
    71. A(C   8,C   5,H  19)          165.65 -0.004505    0.22    165.87   
    72. A(C   4,C   5,H  19)           91.51 -0.035728    0.72     92.23   
    73. A(N   7,C   6,C  14)           28.61 -0.064282    1.02     29.63   
    74. A(C   3,C   6,C  14)           54.56  0.020910   -0.27     54.29   
    75. A(C   3,C   6,H  20)          103.77  0.017007   -0.28    103.49   
    76. A(F   9,C   6,C  14)           83.26 -0.073283    1.21     84.47   
    77. A(C  14,C   6,H  20)          157.95  0.039646   -0.58    157.37   
    78. A(F   9,C   6,H  20)          118.42  0.035203   -0.66    117.76   
    79. A(C   3,C   6,N   7)           83.16 -0.043325    0.75     83.91   
    80. A(N   7,C   6,H  20)          172.15  0.028777   -0.52    171.64   
    81. A(N   7,C   6,F   9)           54.65 -0.009006    0.19     54.84   
    82. A(C   3,C   6,F   9)          137.79 -0.052147    0.94    138.72   
    83. A(C   3,N   7,C   6)           48.73 -0.016228    0.21     48.94   
    84. A(C   6,N   7,B  11)          128.21 -0.094101    1.46    129.67   
    85. A(F   9,N   7,B  11)           47.60 -0.039293    0.52     48.12   
    86. A(C   6,N   7,F   9)           80.84 -0.055803    0.96     81.80   
    87. A(C   3,N   7,F   9)          129.55 -0.071880    1.17    130.71   
    88. A(B  11,N   7,C  14)          122.21  0.074167   -1.12    121.09   
    89. A(F   9,N   7,C  14)          169.75  0.035359   -0.61    169.14   
    90. A(C   6,N   7,C  14)          109.41  0.020493   -0.35    109.06   
    91. A(C   3,N   7,C  14)           60.69  0.036676   -0.56     60.13   
    92. A(C   5,C   8,B  11)           73.16  0.017358   -0.25     72.91   
    93. A(C   4,C   8,B  11)          118.06  0.032479   -0.56    117.50   
    94. A(C   2,C   8,B  11)          160.09  0.026861   -0.49    159.60   
    95. A(C   1,C   8,B  11)          102.91 -0.013936    0.18    103.09   
    96. A(C   2,C   8,C   4)           42.03 -0.005572    0.07     42.11   
    97. A(C   1,C   8,C   4)          139.00 -0.018650    0.38    139.37   
    98. A(C   5,C   8,N  15)           44.27  0.008805   -0.15     44.12   
    99. A(C   2,C   8,N  15)          131.21  0.017698   -0.37    130.84   
   100. A(C   1,C   8,N  15)          131.30 -0.005351    0.08    131.38   
   101. A(C   4,C   8,N  15)           89.52  0.023802   -0.45     89.06   
   102. A(C   1,C   8,C   2)           96.97 -0.013040    0.30     97.28   
   103. A(C   5,C   8,C  14)          129.55 -0.007245    0.19    129.73   
   104. A(C  14,C   8,N  15)           85.28 -0.015984    0.33     85.62   
   105. A(C   2,C   8,C  14)          143.24 -0.002234    0.05    143.29   
   106. A(C   1,C   8,C  14)           46.27  0.010825   -0.26     46.01   
   107. A(C   4,C   8,C   5)           45.25  0.014957   -0.30     44.95   
   108. A(B  11,C   8,N  15)           29.44  0.009553   -0.12     29.33   
   109. A(C   2,C   8,C   5)           87.09  0.009505   -0.24     86.85   
   110. A(C   4,C   8,C  14)          174.72  0.007800   -0.12    174.60   
   111. A(C   1,C   8,C   5)          174.44  0.004411   -0.09    174.35   
   112. A(B  11,C   8,C  14)           56.66 -0.024676    0.44     57.10   
   113. A(N   7,F   9,F  10)          102.92  0.023242   -0.35    102.57   
   114. A(C   6,F   9,F  10)          146.44  0.087434   -1.49    144.95   
   115. A(C   6,F   9,N   7)           44.51  0.064808   -1.15     43.36   
   116. A(F  10,F   9,B  11)           55.42  0.017966   -0.30     55.12   
   117. A(N   7,F   9,B  11)           47.64  0.004770   -0.04     47.60   
   118. A(C   6,F   9,B  11)           92.02  0.069710   -1.19     90.84   
   119. A(B  11,F  10,N  15)           42.76  0.009106   -0.13     42.63   
   120. A(F   9,F  10,N  15)           87.68 -0.009949    0.13     87.81   
   121. A(F   9,F  10,B  11)           46.29 -0.022685    0.32     46.61   
   122. A(C  14,B  11,N  15)           82.60 -0.004818    0.03     82.63   
   123. A(F  10,B  11,N  15)           90.12  0.019308   -0.29     89.83   
   124. A(F   9,B  11,N  15)          158.70  0.031567   -0.47    158.22   
   125. A(C   8,B  11,N  15)           24.30 -0.044751    0.67     24.97   
   126. A(N   7,B  11,N  15)          107.56 -0.059616    0.82    108.38   
   127. A(F  10,B  11,C  14)          170.06  0.019485   -0.34    169.71   
   128. A(F   9,B  11,C  14)          110.70 -0.023986    0.36    111.06   
   129. A(C   8,B  11,C  14)           59.00  0.039732   -0.64     58.36   
   130. A(N   7,B  11,C  14)           25.95 -0.058604    0.85     26.79   
   131. A(F   9,B  11,F  10)           78.29  0.004719   -0.02     78.27   
   132. A(C   8,B  11,F  10)          112.89 -0.022419    0.33    113.22   
   133. A(N   7,B  11,F  10)          162.32  0.040496   -0.53    161.79   
   134. A(C   8,B  11,F   9)          165.75  0.016484   -0.29    165.46   
   135. A(N   7,B  11,F   9)           84.76  0.034523   -0.48     84.28   
   136. A(N   7,B  11,C   8)           84.65 -0.018156    0.20     84.85   
   137. A(C   1,C  14,C   6)          174.90  0.005776   -0.09    174.81   
   138. A(C   0,C  14,C   6)          101.43 -0.013978    0.16    101.59   
   139. A(C   1,C  14,C   3)          133.33  0.015255   -0.23    133.10   
   140. A(C   0,C  14,C   3)           56.59 -0.001236   -0.03     56.56   
   141. A(C   0,C  14,C   1)           76.78  0.016504   -0.20     76.59   
   142. A(C   8,C  14,B  11)           64.34 -0.015056    0.20     64.54   
   143. A(N   7,C  14,B  11)           31.84 -0.015563    0.28     32.12   
   144. A(C   6,C  14,B  11)           73.77  0.028271   -0.40     73.37   
   145. A(C   3,C  14,B  11)          118.69  0.015213   -0.21    118.48   
   146. A(C   1,C  14,B  11)          107.79 -0.029919    0.42    108.21   
   147. A(C   0,C  14,B  11)          174.58  0.015413   -0.26    174.32   
   148. A(N   7,C  14,C   8)           95.80 -0.030105    0.46     96.27   
   149. A(C   6,C  14,C   8)          137.63  0.013690   -0.21    137.42   
   150. A(C   3,C  14,C   8)          174.02  0.003893   -0.06    173.96   
   151. A(C   1,C  14,C   8)           43.47 -0.014783    0.23     43.70   
   152. A(C   0,C  14,C   8)          120.09  0.002069    0.02    120.12   
   153. A(C   6,C  14,N   7)           41.98  0.043789   -0.67     41.31   
   154. A(C   3,C  14,N   7)           86.90  0.030768   -0.48     86.42   
   155. A(C   1,C  14,N   7)          139.18 -0.044303    0.68    139.86   
   156. A(C   0,C  14,N   7)          143.17  0.030285   -0.53    142.65   
   157. A(C   3,C  14,C   6)           44.93 -0.013053    0.19     45.12   
   158. A(F  10,N  15,B  11)           47.12 -0.028414    0.43     47.54   
   159. A(C   8,N  15,B  11)          126.26  0.035198   -0.56    125.70   
   160. A(C   5,N  15,B  11)          130.93 -0.097568    1.49    132.41   
[...]
 total:
 * wall-time:     0 d,  0 h,  0 min,  0.037 sec
 *  cpu-time:     0 d,  0 h,  0 min,  0.034 sec
 * ratio c/w:     0.937 speedup
 SCF:
 * wall-time:     0 d,  0 h,  0 min,  0.026 sec
 *  cpu-time:     0 d,  0 h,  0 min,  0.024 sec
 * ratio c/w:     0.934 speedup


-------------------------   --------------------
FINAL SINGLE POINT ENERGY       -46.133078687480
-------------------------   --------------------


-------------
DIPOLE MOMENT
-------------
                                X             Y             Z
Total Dipole Moment    :      0.06200       1.69200       0.41600
                        -----------------------------------------
Magnitude (a.u.)       :      1.74349
Magnitude (Debye)      :      4.43160


------------------
CARTESIAN GRADIENT
------------------

   1   C   :    0.003767623   -0.002371940    0.003713576
   2   C   :    0.003519705    0.002467344   -0.006312623
   3   C   :    0.001702836    0.000743026    0.000078243
   4   C   :    0.000419897   -0.001258404   -0.003440801
   5   C   :    0.001978321   -0.001207801    0.001151189
   6   C   :    0.001031900    0.000298849   -0.000492821
   7   C   :   -0.002298096    0.002598006    0.001018662
   8   N   :   -0.000585646   -0.003066330    0.009978469
   9   C   :    0.006677492    0.004402384    0.002623137
  10   F   :   -0.003304377   -0.003808111   -0.001402419
  11   F   :    0.000714697    0.001017442   -0.003974648
  12   B   :    0.002650220    0.003580276    0.003062670
  13   I   :    0.000205230   -0.000543529    0.000155144
  14   I   :   -0.000349749   -0.000533235   -0.000012455
  15   C   :   -0.004518443   -0.005277475   -0.004513439
  16   N   :   -0.012181010    0.003633588   -0.002072764
  17   H   :    0.000333161    0.000236021    0.000194900
  18   H   :    0.000789164    0.000046256    0.000780623
  19   H   :   -0.002009401   -0.000880414   -0.000457680
  20   H   :    0.000380948    0.000482740    0.000268138
  21   H   :    0.001075527   -0.000558692   -0.000345102

Difference to translation invariance:
           :   -0.0000000000    0.0000000000   -0.0000000000

Difference to rotation invariance:
           :    0.0000000650   -0.0000000777    0.0000000625

Norm of the Cartesian gradient     ...    0.0250611177
RMS gradient                       ...    0.0031574040
MAX gradient                       ...    0.0121810097
------------------------------------------------------------------------------
                         ORCA GEOMETRY RELAXATION STEP
------------------------------------------------------------------------------

Reading the OPT-File                    .... done
Getting information on internals        .... done
Copying old internal coords+grads       .... done
Making the new internal coordinates     .... (2022 redundants) done
Validating the new internal coordinates .... (2022 redundants) done
Calculating the B-matrix                .... done
Calculating the G,G- and P matrices     .... done
Transforming gradient to internals      .... done
Projecting the internal gradient        .... done
Number of atoms                         ....  21
Number of internal coordinates          .... 120
Current Energy                          ....   -46.133078687 Eh
Current gradient norm                   ....     0.025061118 Eh/bohr
Maximum allowed component of the step   ....  0.300
Current trust radius                    ....  0.467
Updating the Hessian (BFGS)             .... done
Forming the augmented Hessian           .... done
Diagonalizing the augmented Hessian     .... done
Last element of RFO vector              ....  0.996801034
Lowest eigenvalues of augmented Hessian:
 -0.000442869  0.012426025  0.021748966  0.029959408  0.040785354
Length of the computed step             ....  0.080179577
The final length of the internal step   ....  0.080179577
Converting the step to Cartesian space:
 Initial RMS(Int)=    0.0073193605
Transforming coordinates:
 Iter   0:  RMS(Cart)=    0.0140578610 RMS(Int)=    0.0073132112
done
Storing new coordinates                 .... done
The predicted energy change is          ....    -0.000222858
Previously predicted energy change      ....    -0.000236132
Actually observed energy change         ....    -0.000342973
Ratio of predicted to observed change   ....     1.452466328
New trust radius                        ....     0.466666667

                                .--------------------.
          ----------------------|Geometry convergence|-------------------------
          Item                value                   Tolerance       Converged
          ---------------------------------------------------------------------
          Energy change      -0.0003429731            0.0000050000      NO
          RMS gradient        0.0017732060            0.0001000000      NO
          MAX gradient        0.0071180864            0.0003000000      NO
          RMS step            0.0073193605            0.0020000000      NO
          MAX step            0.0248155961            0.0040000000      NO
          -------------------------------------------------------------------------
          ........................................................
          Max(Bonds)      0.0050      Max(Angles)    0.86
          Max(Dihed)        1.42      Max(Improp)    0.00
          ---------------------------------------------------------------------

The optimization has not yet converged - more geometry cycles are needed


    ---------------------------------------------------------------------------
                         Redundant Internal Coordinates
                            (Angstroem and degrees)

        Definition                    Value    dE/dq     Step     New-Value
    ----------------------------------------------------------------------------
     1. B(C   3,C   0)                1.3786  0.000479  0.0002    1.3789   
     2. B(C   4,C   2)                1.3793  0.001014  0.0012    1.3804   
     3. B(C   5,C   4)                1.4038 -0.000234  0.0002    1.4041   
     4. B(C   6,C   3)                1.4002 -0.002829  0.0004    1.4006   
     5. B(N   7,C   6)                1.3246 -0.001161 -0.0016    1.3229   
     6. B(C   8,C   2)                1.4118  0.000043 -0.0014    1.4104   
     7. B(C   8,C   1)                1.3886 -0.000721  0.0024    1.3910   
     8. B(B  11,F  10)                1.3891  0.003897 -0.0001    1.3890   
     9. B(B  11,F   9)                1.3612  0.002894  0.0035    1.3647   
    10. B(B  11,N   7)                1.5490 -0.003656 -0.0034    1.5457   
    11. B(I  12,C   3)                2.0832 -0.000173  0.0000    2.0833   
    12. B(I  13,C   4)                2.0821 -0.000329  0.0005    2.0826   
    13. B(C  14,N   7)                1.3860 -0.000431 -0.0014    1.3846   
    14. B(C  14,C   1)                1.3972  0.007118 -0.0050    1.3922   
    15. B(C  14,C   0)                1.4093 -0.002817  0.0016    1.4109   
    16. B(N  15,B  11)                1.5462 -0.000735  0.0002    1.5464   
    17. B(N  15,C   8)                1.3849  0.000404 -0.0043    1.3806   
    18. B(N  15,C   5)                1.3264  0.002409  0.0007    1.3271   
    19. B(H  16,C   0)                1.0724  0.000100  0.0002    1.0725   
    20. B(H  17,C   1)                1.0788 -0.000108  0.0000    1.0788   
    21. B(H  18,C   2)                1.0697 -0.001360  0.0008    1.0705   
    22. B(H  19,C   5)                1.0732 -0.000327  0.0002    1.0733   
    23. B(H  20,C   6)                1.0739  0.000225 -0.0000    1.0739   
    24. A(C  14,C   0,H  16)          125.99 -0.001143   -0.22    125.76   
    25. A(C   3,C   0,H  16)          127.60 -0.000434    0.17    127.77   
    26. A(C   3,C   0,C  14)          106.41  0.001564    0.04    106.46   
    27. A(C   8,C   1,C  14)          120.26 -0.001687   -0.08    120.19   
    28. A(C   8,C   1,H  17)          119.82 -0.000069   -0.26    119.56   
    29. A(C  14,C   1,H  17)          119.60  0.001595    0.29    119.90   
    30. A(C   8,C   2,H  18)          125.00 -0.001666    0.84    125.84   
    31. A(C   4,C   2,H  18)          128.94  0.001913   -0.86    128.09   
    32. A(C   4,C   2,C   8)          106.04 -0.000241    0.03    106.07   
    33. A(C   0,C   3,C   6)          107.65 -0.000571   -0.02    107.63   
    34. A(C   0,C   3,I  12)          127.85  0.001414   -0.45    127.40   
    35. A(C   6,C   3,I  12)          124.44 -0.000867    0.48    124.93   
    36. A(C   2,C   4,C   5)          107.67 -0.000962   -0.09    107.58   
    37. A(C   5,C   4,I  13)          124.42 -0.000593    0.11    124.53   
    38. A(C   2,C   4,I  13)          127.92  0.001554   -0.02    127.89   
    39. A(C   4,C   5,N  15)          109.65  0.002083   -0.15    109.50   
    40. A(C   4,C   5,H  19)          128.32 -0.001574    0.07    128.39   
    41. A(N  15,C   5,H  19)          122.03 -0.000512    0.08    122.11   
    42. A(N   7,C   6,H  20)          120.80 -0.000862   -0.15    120.65   
    43. A(C   3,C   6,N   7)          109.39 -0.000685   -0.07    109.33   
    44. A(C   3,C   6,H  20)          129.80  0.001537    0.20    130.00   
    45. A(C   6,N   7,B  11)          129.73  0.000477   -0.56    129.17   
    46. A(B  11,N   7,C  14)          116.90 -0.003039    0.46    117.36   
    47. A(C   6,N   7,C  14)          108.63  0.001817    0.25    108.87   
    48. A(C   2,C   8,N  15)          108.48  0.002007    0.02    108.50   
    49. A(C   1,C   8,N  15)          118.44 -0.005052    0.44    118.88   
    50. A(C   1,C   8,C   2)          132.99  0.003079   -0.44    132.55   
    51. A(N   7,B  11,F   9)          111.86 -0.003202    0.20    112.06   
    52. A(F  10,B  11,N  15)          106.85 -0.001254    0.01    106.86   
    53. A(F   9,B  11,N  15)          114.81  0.004419   -0.01    114.80   
    54. A(N   7,B  11,N  15)          104.24 -0.000910    0.15    104.39   
    55. A(F   9,B  11,F  10)          110.96 -0.000249   -0.32    110.64   
    56. A(N   7,B  11,F  10)          107.63  0.001111   -0.01    107.63   
    57. A(C   1,C  14,N   7)          121.98  0.003320   -0.28    121.70   
    58. A(C   0,C  14,N   7)          107.83 -0.002205   -0.16    107.66   
    59. A(C   0,C  14,C   1)          129.82 -0.001195    0.42    130.24   
    60. A(C   8,N  15,B  11)          121.95  0.005698   -0.10    121.85   
    61. A(C   5,N  15,B  11)          128.21 -0.003031    0.22    128.42   
    62. A(C   5,N  15,C   8)          108.14 -0.002897    0.18    108.33   
    63. D(C   6,C   3,C   0,H  16)   -179.11  0.000306   -0.61   -179.72   
    64. D(I  12,C   3,C   0,C  14)    179.11  0.000722   -0.51    178.60   
    65. D(I  12,C   3,C   0,H  16)     -1.66 -0.000339   -0.92     -2.58   
    66. D(C   6,C   3,C   0,C  14)      1.66  0.001367   -0.20      1.47   
    67. D(C   5,C   4,C   2,C   8)      1.35  0.000126    0.30      1.65   
    68. D(I  13,C   4,C   2,C   8)   -178.88 -0.000138    0.56   -178.32   
    69. D(I  13,C   4,C   2,H  18)     -0.08  0.000171    0.16      0.08   
    70. D(C   5,C   4,C   2,H  18)   -179.85  0.000435   -0.10   -179.95   
    71. D(N  15,C   5,C   4,C   2)     -1.45 -0.000479   -0.18     -1.62   
    72. D(H  19,C   5,C   4,C   2)    178.86  0.000101    0.17    179.03   
    73. D(H  19,C   5,C   4,I  13)     -0.92  0.000348   -0.08     -1.00   
    74. D(N  15,C   5,C   4,I  13)    178.77 -0.000232   -0.43    178.34   
    75. D(H  20,C   6,C   3,C   0)   -179.04  0.000195    0.06   -178.98   
    76. D(N   7,C   6,C   3,I  12)   -177.48 -0.000076    0.29   -177.19   
    77. D(N   7,C   6,C   3,C   0)      0.08 -0.000621   -0.07      0.01   
    78. D(H  20,C   6,C   3,I  12)      3.40  0.000740    0.41      3.81   
    79. D(C  14,N   7,C   6,C   3)     -1.84 -0.000393    0.30     -1.54   
    80. D(C  14,N   7,C   6,H  20)    177.38 -0.001098    0.24    177.62   
    81. D(B  11,N   7,C   6,H  20)     23.11  0.001525   -0.29     22.82   
    82. D(B  11,N   7,C   6,C   3)   -156.10  0.002231   -0.23   -156.34   
    83. D(N  15,C   8,C   2,H  18)   -179.68 -0.000140    0.02   -179.66   
    84. D(C   1,C   8,C   2,H  18)     -3.21  0.000372    0.40     -2.81   
    85. D(C   1,C   8,C   2,C   4)    175.66  0.000719    0.05    175.70   
    86. D(N  15,C   8,C   1,H  17)   -177.75 -0.000049    0.07   -177.68   
    87. D(N  15,C   8,C   2,C   4)     -0.82  0.000207   -0.33     -1.15   
    88. D(N  15,C   8,C   1,C  14)      8.73  0.001502    0.28      9.00   
    89. D(C   2,C   8,C   1,H  17)      6.05 -0.000829   -0.32      5.73   
    90. D(C   2,C   8,C   1,C  14)   -167.47  0.000723   -0.11   -167.58   
    91. D(F  10,B  11,N   7,C   6)     82.53  0.000190   -0.14     82.39   
    92. D(F   9,B  11,N   7,C  14)    167.86  0.003472   -0.13    167.74   
    93. D(N  15,B  11,N   7,C   6)   -164.24 -0.001180    0.17   -164.07   
    94. D(F  10,B  11,N   7,C  14)    -70.00  0.001900   -0.65    -70.65   
    95. D(F   9,B  11,N   7,C   6)    -39.61  0.001762    0.38    -39.23   
    96. D(C   1,C  14,N   7,B  11)    -25.46 -0.001027   -0.40    -25.86   
    97. D(C   1,C  14,N   7,C   6)    176.52  0.000388   -0.56    175.96   
    98. D(C   0,C  14,N   7,C   6)      2.87  0.001200   -0.43      2.44   
    99. D(N   7,C  14,C   1,H  17)   -177.38  0.000756    0.75   -176.63   
   100. D(N   7,C  14,C   1,C   8)     -3.84 -0.000899    0.48     -3.35   
   101. D(C   0,C  14,C   1,H  17)     -5.25 -0.000214    0.53     -4.72   
   102. D(C   0,C  14,C   1,C   8)    168.29 -0.001869    0.27    168.56   
   103. D(N   7,C  14,C   0,H  16)    177.99 -0.000500    0.76    178.75   
   104. D(C   0,C  14,N   7,B  11)    160.88 -0.000215   -0.27    160.62   
   105. D(N   7,C  14,C   0,C   3)     -2.76 -0.001532    0.38     -2.38   
   106. D(C   1,C  14,C   0,H  16)      5.00  0.000021    0.98      5.98   
   107. D(C   1,C  14,C   0,C   3)   -175.75 -0.001012    0.59   -175.16   
   108. D(C   8,N  15,B  11,F   9)   -163.07 -0.001603    1.07   -162.01   
   109. D(C   8,N  15,B  11,N   7)    -40.35 -0.003621    1.42    -38.93   
   110. D(C   5,N  15,B  11,F  10)    -89.87 -0.001842   -0.00    -89.87   
   111. D(C   5,N  15,B  11,N   7)    156.34 -0.002172   -0.06    156.28   
   112. D(B  11,N  15,C   8,C   2)   -166.32  0.001040   -1.00   -167.33   
   113. D(B  11,N  15,C   8,C   1)     16.61  0.000327   -1.28     15.33   
   114. D(C   5,N  15,C   8,C   2)     -0.06 -0.000493    0.23      0.17   
   115. D(C   5,N  15,C   8,C   1)   -177.13 -0.001206   -0.05   -177.18   
   116. D(C   5,N  15,B  11,F   9)     33.62 -0.000154   -0.41     33.20   
   117. D(B  11,N  15,C   5,H  19)    -14.22 -0.000025    0.93    -13.29   
   118. D(B  11,N  15,C   5,C   4)    166.06  0.000517    1.25    167.31   
   119. D(C   8,N  15,C   5,H  19)   -179.37  0.000063   -0.34   -179.71   
   120. D(C   8,N  15,C   5,C   4)      0.92  0.000604   -0.03      0.89   
    ----------------------------------------------------------------------------

Geometry step timings:
Preparation and reading OPT file:      0.000 s ( 0.649 %)
Internal coordinates            :      0.000 s ( 1.185 %)
B/P matrices and projection     :      0.001 s (29.749 %)
Hessian update/contruction      :      0.000 s (11.149 %)
Making the step                 :      0.001 s (27.660 %)
Converting the step to Cartesian:      0.000 s ( 2.851 %)
Storing new data                :      0.000 s ( 1.016 %)
Checking convergence            :      0.000 s ( 2.004 %)
Final printing                  :      0.001 s (23.737 %)
Total time                      :      0.004 s

Time for energy+gradient        :      0.050 s
Time for complete geometry iter :      0.054 s




    ----------------------------------------------------------------------------
                                  WARNING !!!
       The optimization did not converge but reached the maximum number of
       optimization cycles.
       Please check your results very carefully.
    ----------------------------------------------------------------------------



--------------------------------
SUGGESTED CITATIONS FOR THIS RUN
--------------------------------

Below you find a list of papers that are relevant to this ORCA run
We neither can nor want to force you to cite these papers, but we appreciate if you do
You receive ORCA, which is the product of decades of hard work by many enthusiastic individuals, for free
The only thing we kindly ask in return is that you cite our papers,
We deeply appreciate it, if you show your appreciation for ORCA by not just citing the generic ORCA reference.

Please note that relegating all ORCA citations to the supporting information does *not* help us.
SI sections are not indexed - citations you put there will not count into any citation statistics
But we need these citations in order to attract the funding resources that allow us to do what we are doing

Therefore, if you are a happy ORCA user, please consider citing a few of the papers listed below in the main body of your paper

In addition to the list printed below, the program has created the file Iodo_opt.bibtex that contains the list in bibtex format
You can import this file easily into all common literature databanks and citation aid programs


List of essential papers. We consider these as the minimum necessary citations

  1. Bannwarth, C.; Ehlert, S.; Grimme, S.
     GFN2-xTB—An Accurate and Broadly Parametrized Self-Consistent Tight-Binding Quantum Chemical Method with Multipole Electrostatics and Density-Dependent Dispersion Contributions
     J. Chem. Theory Comput. 2019 15(3), 1652-1671
     doi.org/10.1021/acs.jctc.8b01176
  2. Neese, F.
     Software update: the ORCA program system, version 6.0
     WIRES Comput. Molec. Sci. 2025 15(1), e70019
     doi.org/10.1002/wcms.7019

List of papers to cite with high priority. The work reported in these papers was absolutely
necessary for this run to complete.
Our perspective: the developers of density functionals and basis sets usually get cited in chemistry papers
Good! But without the algorithms to do something with them, the functionals or basis sets would not do anything.
Hence, in our opinion, the algorithm design and method developments papers are equally worthy of getting cited

  1. Bannwarth, C.; Caldeweyher, E.; Ehlert, S.; Hansen, A.; Pracht, P.; Seibert, J.; Spicher, S.; Grimme, S.
     Extended tight-binding quantum chemistry methods
     WIRES Comput. Molec. Sci. 2020 11(2), e1493
     doi.org/10.1002/wcms.1493

List of suggested additional citations. These are papers that are important in the 'surrounding' of 
of this run, or papers that preceded the highly important papers. If you like your results we are grateful for a citation.

  1. Neese, F.
     The ORCA program system
     WIRES Comput. Molec. Sci. 2012 2(1), 73-78
     doi.org/10.1002/wcms.81
  2. Neese, F.
     Software update: the ORCA program system, version 4.0
     WIRES Comput. Molec. Sci. 2018 8(1), 1-6
     doi.org/10.1002/wcms.1327
  3. Neese, F.; Wennmohs, F.; Becker, U.; Riplinger, C.
     The ORCA quantum chemistry program package
     J. Chem. Phys. 2020 152(22), 224108
     doi.org/10.1063/5.0004608
  4. Neese, F.
     Software update: The ORCA program system—Version 5.0
     WIRES Comput. Molec. Sci. 2022 12(1), e1606
     doi.org/10.1002/wcms.1606

List of optional additional citations

  1. Neese, F.
     Approximate second-order SCF convergence for spin unrestricted wavefunctions
     Chem. Phys. Lett. 2000 325(1-3), 93-98
     doi.org/10.1016/s0009-2614(00)00662-x

Timings for individual modules:

Sum of individual times          ...        3.372 sec (=   0.056 min)
Geometry relaxation              ...        0.768 sec (=   0.013 min)  22.8 %
XTB module                       ...        2.604 sec (=   0.043 min)  77.2 %
                             ****ORCA TERMINATED NORMALLY****
TOTAL RUN TIME: 0 days 0 hours 0 minutes 3 seconds 792 msec
