
                                 *****************
                                 * O   R   C   A *
                                 *****************

                                            #,                                       
                                            ###                                      
                                            ####                                     
                                            #####                                    
                                            ######                                   
                                           ########,                                 
                                     ,,################,,,,,                         
                               ,,#################################,,                 
                          ,,##########################################,,             
                       ,#########################################, ''#####,          
                    ,#############################################,,   '####,        
                  ,##################################################,,,,####,       
                ,###########''''           ''''###############################       
              ,#####''   ,,,,##########,,,,          '''####'''          '####       
            ,##' ,,,,###########################,,,                        '##       
           ' ,,###''''                  '''############,,,                           
         ,,##''                                '''############,,,,        ,,,,,,###''
      ,#''                                            '''#######################'''  
     '                                                          ''''####''''         
             ,#######,   #######,   ,#######,      ##                                
            ,#'     '#,  ##    ##  ,#'     '#,    #''#        ,####,    ,#,          
            ##       ##  ##   ,#'  ##            #'  '#       #'       ,# #          
            ##       ##  #######   ##           ,######,      #####,      #          
            '#,     ,#'  ##    ##  '#,     ,#' ,#      #,     #,   #      #          
             '#######'   ##     ##  '#######'  #'      '#     '####' #    #          



                #########################################################
                #                        -***-                          #
                #          Department of theory and spectroscopy        #
                #                                                       #
                #                      Frank Neese                      #
                #                                                       #
                #     Directorship, Architecture, Infrastructure        #
                #                    SHARK, DRIVERS                     #
                #        Core code/Algorithms in most modules           #
                #                                                       #
                #        Max Planck Institute fuer Kohlenforschung      #
                #                Kaiser Wilhelm Platz 1                 #
                #                 D-45470 Muelheim/Ruhr                 #
                #                      Germany                          #
                #                                                       #
                #                  All rights reserved                  #
                #                        -***-                          #
                #########################################################


                         Program Version 6.1.0  -  RELEASE   -
                                (GIT: $679e74b$)
                          ($2025-06-10 18:02:51 +0200$)


 With contributions from (in alphabetic order):
[Max-Planck-Institut fuer Kohlenforschung]                               
  Daniel Aravena         : Magnetic Suceptibility                        
  Michael Atanasov       : Ab Initio Ligand Field Theory (pilot matlab implementation)
  Alexander A. Auer      : GIAO ZORA, VPT2 properties, NMR spectrum      
  Ute Becker             : All parallelization in ORCA, NUMFREQ, NUMCALC 
  Giovanni Bistoni       : ED, misc. LED, open-shell LED, HFLD           
  Dmytro Bykov           : pre 5.0 version of the SCF Hessian            
  Marcos Casanova-Páez   : Triplet and SCS-CIS(D). UHF-(DLPNO)-IP/EA/STEOM-CCSD. UHF-CVS-IP/STEOM-CCSD   
  Vijay G. Chilkuri      : MRCI spin determinant printing, contributions to CSF-ICE 
  Pauline Colinet        : FMM embedding                                 
  Dipayan Datta          : RHF DLPNO-CCSD density                        
  Achintya Kumar Dutta   : EOM-CC, STEOM-CC                              
  Nicolas Foglia         : Exact transition moments, OPA infrastructure, MCD improvements    
  Dmitry Ganyushin       : Spin-Orbit,Spin-Spin,Magnetic field MRCI      
  Miquel Garcia-Rates    : C-PCM and meta-GGA Hessian, CCSD/C-PCM, Gaussian charge scheme 
  Tiago L. C. Gouveia    : GS-ROHF, GS-ROCIS                             
  Yang Guo               : DLPNO-NEVPT2, F12-NEVPT2, CIM, IAO-localization        
  Andreas Hansen         : Spin unrestricted coupled pair/coupled cluster methods 
  Ingolf Harden          : AUTO-CI MPn and infrastructure                
  Benjamin Helmich-Paris : MC-RPA, TRAH-(SCF,CASSCF), AVAS, COSX integrals, SCF dyn. polar., MC-PDFT, srDFT 
  Lee Huntington         : MR-EOM, pCC                                   
  Robert Izsak           : Overlap fitted RIJCOSX, COSX-SCS-MP3, EOM     
  Riya Kayal             : Wick's Theorem for AUTO-CI, AUTO-CI UHF-CCSDT 
  Emily Kempfer          : AUTO-CI RHF CISDT and CCSDT, approximate NEVPT4
  Christian Kollmar      : KDIIS, OOCD, Brueckner-CCSD(T), CCSD density, CASPT2, CASPT2-K, improved NEVPT2 
  Axel Koslowski         : Symmetry handling                             
  Simone Kossmann        : meta-GGA functionals, TD-DFT gradient, OOMP2, (MP2 Hessian; deprecated post 5.0) 
  Lucas Lang             : DCDCAS, Hyperfine gauge corrections, ICE-SOC+SSC
  Marvin Lechner         : AUTO-CI (C++ implementation), FIC-MRCC        
  Spencer Leger          : CASSCF response                               
  Dagmar Lenk            : GEPOL surface, SMD, ORCA-2-JSON               
  Dimitrios Liakos       : Extrapolation schemes; Compound Job, Property file
  Dimitrios Manganas     : Further ROCIS development; embedding schemes. LFT, Crystal Embedding 
  Dimitrios Pantazis     : SARC Basis sets                               
  Anastasios Papadopoulos: AUTO-CI, single reference methods and gradients 
  Taras Petrenko         : pre 6.0 DFT Hessian and TD-DFT gradient,  ECA, NRVS 
  Petra Pikulova         : Analytic Raman intensities                    
  Peter Pinski           : DLPNO-MP2, DLPNO-MP2 Gradient                 
  Shashank Vittal Rao    : ES-AILFT, MagRelax                            
  Christoph Reimann      : Effective Core Potentials                     
  Marius Retegan         : Local ZFS, SOC                                
  Christoph Riplinger    : Optimizer, TS searches, QM/MM, DLPNO-CCSD(T), (RO)-DLPNO pert. Triples 
  Michael Roemelt        : Original ROCIS implementation, recursive CI coupling coefficients
  Masaaki Saitow         : Open-shell DLPNO-CCSD energy and density      
  Barbara Sandhoefer     : DKH picture change effects                    
  Yorick L. A. Schmerwitz: GMF and freeze-and-release deltaSCF, NEB S-IDPP initial path                    
  Kantharuban Sivalingam : CASSCF convergence/infrastructure, NEVPT2, NEVPT3, NEVPT4(SD), FIC-MRCI and CEPA variants
  Bernardo de Souza      : ESD, SOC TD-DFT                               
  Georgi L. Stoychev     : AutoAux, RI-MP2 NMR, DLPNO-MP2 response, X2C  
  Van Anh Tran           : RI-MP2 g-tensors                              
  Willem Van den Heuvel  : Paramagnetic NMR                              
  Zikuan Wang            : NOTCH, Electric field optimization            
  Frank Wennmohs         : Technical directorship and infrastructure     
  Hang Xu                : AUTO-CI-Response properties                   
                                                                         
[FACCTs GmbH]                                                            
  Markus Bursch, Nicolas Foglia, Miquel Garcia-Rates, Ingolf Harden, Hagen Neugebauer, Anastasios Papadopoulos, 
  Christoph Riplinger, Bernardo de Souza, Georgi L. Stoychev                                                    
                                                                 
  APM, various basis sets, CI-OPT, improved COSX, DLPNO-Multilevel,           
  DOCKER, DRACO, updates on ESD, Fragmentator, GOAT, IRC, LR-CPCM, L-BFGS, MBIS, meta-GGA TD-DFT gradient, ML-optimized integration grids, 
  MM, NACMEs, nearIR, NEB, NEB-TS, NL-DFT gradient (VV10), 2- and 3-layer-ONIOM, interface openCOSMO-RS, QMMM,   
  Crystal-QMMM, RESP, rigid body optimization, SF, symmetry and pop. for TD-DFT, various functionals, SOLVATOR                                   
                                                                         
[Other institutions]                                                     
  V. Asgeirsson          : NEB                                           
  Christoph Bannwarth    : sTDA-DFT, sTD-DFT, PBEh-3c, B97-3c, D3        
  Giovanni Bistoni       : ETS/NOCV, ADLD/ADEX, COVALED                  
  Martin Brehm           : Molecular dynamics                            
  Ronald Cardenas        : ETS/NOCV                                      
  Martina Colucci        : COVALED                                       
  Sebastian Ehlert       : rSCAN, r2SCAN, r2SCAN-3c, D4, dhf basis sets  
  Marvin Friede          : D4 for Fr, Ra, Ac-Lr                          
  Lars Goerigk           : TD-DFT with DH, B97 family of functionals     
  Stefan Grimme          : VdW corrections, initial TS optimization, DFT functionals, gCP, sTDA/sTD-DF 
  Waldemar Hujo          : DFT-NL                                        
  H. Jonsson             : NEB                                           
  Holger Kruse           : gCP                                           
  Marcel Mueller         : wB97X-3c, vDZP basis set                      
  Hagen Neugebauer       : wr2SCAN, Native XTB                           
  Gianluca Regni         : ADLD/ADEX                                     
  Tobias Risthaus        : pre 6.0 range-separated hybrid DFT and stability analysis
  Lukas Wittmann         : regularized MP2, r2SCAN double-hybrids, wr2SCAN        
                                                                         
We gratefully acknowledge several colleagues who have allowed us to      
interface, adapt or use parts of their codes:                            
  Ed Valeev, F. Pavosevic, A. Kumar             : LibInt (2-el integral package), F12 methods 
  Garnet Chan, S. Sharma, J. Yang, R. Olivares  : DMRG                   
  Ulf Ekstrom                                   : XCFun DFT Library      
  Mihaly Kallay                                 : mrcc  (arbitrary order and MRCC methods)
  Frank Weinhold                                : gennbo (NPA and NBO analysis)           
  Simon Mueller                                 : openCOSMO-RS                            
  Christopher J. Cramer and Donald G. Truhlar   : smd solvation model                     
  S Lehtola, MJT Oliveira, MAL Marques          : LibXC Library                           
  Liviu Ungur et al                             : ANISO software                          


 Your calculation uses the libint2 library for the computation of 2-el integrals
 For citations please refer to: http://libint.valeyev.net

 Your ORCA version has been built with support for libXC version: 7.0.0
 For citations please refer to: https://libxc.gitlab.io

 This ORCA versions uses:
   CBLAS   interface :  Fast vector & matrix operations
   LAPACKE interface :  Fast linear algebra routines
   SCALAPACK package :  Parallel linear algebra routines
   Shared memory     :  Shared parallel matrices
   BLAS/LAPACK       :  OpenBLAS 0.3.29  USE64BITINT DYNAMIC_ARCH NO_AFFINITY Haswell SINGLE_THREADED
        Core in use  :  Haswell
   Copyright (c) 2011-2014, The OpenBLAS Project


  ***********************************
  * Starting time: Thu Oct 30 12:28:10 2025
  * Host name:     corine-kengne-Latitude-5491
  * Process ID:    4978
  * Working dir.:  /home/corine-kengne/Documents/Travaux M2/OPT_GFN2-xTB/TPP_BODIPY
  ***********************************

Your calculation utilizes the semiempirical GFN2-xTB method
Please cite in your paper:
Bannwarth, C.; Ehlert S.; Grimme, S. J. Chem. Theory Comput. 2019, 15, 1652.
   

================================================================================

================================================================================
                                        WARNINGS
                       Please study these warnings very carefully!
================================================================================


WARNING: Geometry Optimization
  ===> : Switching off AutoStart
         For restart on a previous wavefunction, please use MOREAD

WARNING: Found dipole moment calculation with XTB calculation
  ===> : Switching off dipole moment calculation


================================================================================
                                       INPUT FILE
================================================================================
NAME = TPP_Opt.inp
|  1> # ----------------------------------------------------
|  2> # OPTIMISATION DU PROTOTYPE 1 : BODIPY de base
|  3> # ----------------------------------------------------
|  4> ! OPT GFN2-xTB
|  5> 
|  6> # Définition des coordonnées du BODIPY de base
|  7> 
|  8> *xyz 0 1 Bod_xtb_opt.xyz
|  9> 
| 10>    P          -6.36186826501938     10.81952313594482      1.43130376515350
| 11>   C          -7.72251428724534     13.98015905274315      4.44430994853092
| 12>   C          -7.57049641152292     14.29962959090705      3.10389550967823
| 13>   C          -7.18961985796610     13.32430166085772      2.20152623255831
| 14>   C          -6.97745598402598     12.01860999557247      2.64107416758334
| 15>   C          -7.47805986392518     12.68903324027277      4.88559250407851
| 16>   C          -7.09505224252417     11.70627917576567      3.99015366812287
| 17>   C          -8.68472882578875     11.44988170035440     -0.07023703125136
| 18>   C          -9.48879223858486     11.29760645597458     -1.18586631268205
| 19>   C          -9.06394368660150     10.52488854449572     -2.25436846514971
| 20>   C          -7.83231351426904      9.88692267919577     -2.20675910035593
| 21>   C          -7.02655566323920     10.02787873107737     -1.09486887148291
| 22>   C          -7.43862864091179     10.83279765125778     -0.03185428484676
| 23>   C          -3.30342796711783     12.70715567589575     -0.51992119559294
| 24>   C          -4.53591687479317     12.12993293781207     -0.26459259210255
| 25>   C          -4.76490709049534     11.52725110366957      0.96516696339850
| 26>   C          -2.31328694821337     12.69257619508257      0.44833102857400
| 27>   C          -2.55063681699616     12.10593572809602      1.68290640636504
| 28>   C          -3.77746495869905     11.52965311085835      1.94753573622499
| 29>   H          -8.61245673720612      6.32890563012751      4.55113690468356
| 30>   H          -8.02200745784968     14.74269451457016      5.14741331430136
| 31>   H          -7.74461088693730     15.30968997662535      2.76378677686830
| 32>   H          -7.58274319532524     12.44588572143178      5.93190432284583
| 33>   H          -6.90016292448092     10.70001824326144      4.32984031851366
| 34>   H          -7.05469137567540     13.56596745673200      1.15491911715567
| 35>   H          -5.30965579845840     12.13570784166906     -1.01988615644896
| 36>   H          -3.11693982707488     13.16849749378768     -1.47831293816865
| 37>   H          -1.35309335294282     13.14065287029224      0.24161682332689
| 38>   H          -1.77825296779170     12.09811496658433      2.43664358084207
| 39>   H          -3.97695006672556     11.05944218951819      2.90079093221696
| 40>   H          -6.07400316983589      9.51739878006467     -1.03138360873395
| 41>   H          -7.50816821723283      9.27296014684686     -3.03351984358856
| 42>   H          -9.69723010827299     10.40897265188854     -3.12071956342433
| 43>   H         -10.45404231070492     11.78067121147182     -1.21838228014544
| 44>   H          -9.01935186466333     12.05106720043155      0.76361186186338
| 45>   C          -6.18777441160687      9.21379533032335      2.11646969018512
| 46>   C          -7.32601606290350      8.67747025410640      2.78182018876210
| 47>   C          -8.64683458708542      9.13854027670321      2.85308789129119
| 48>   C          -9.35753790934363      8.20394403626816      3.60059709204205
| 49>   C          -8.45887139576589      7.21503670539113      3.96806400632036
| 50>   C          -5.06379222090366      8.37525649551363      1.88368537215040
| 51>   C          -3.97809602251742      8.46242099051413      1.00112971719806
| 52>   C          -3.21781006645527      7.31178062214623      1.18249723978819
| 53>   C          -3.84647988857793      6.56315526212678      2.16393854055825
| 54>   N          -7.24276692233802      7.49788315432007      3.46562856506143
| 55>   N          -4.95947160260727      7.19659148133849      2.57314809910542
| 56>   B          -5.91146933252403      6.76179736079281      3.70607242707368
| 57>   F          -5.38286234032855      7.16120047605757      4.93151853396412
| 58>   F          -6.08992742573910      5.39713121839260      3.69773732167687
| 59>   H          -2.31789138816963      7.04808167570224      0.66197770748925
| 60>   H          -3.57209371594556      5.61863729433910      2.58996920218531
| 61>   H          -3.79006880758986      9.24692512061605      0.29256499890537
| 62>   H          -9.02913706345527     10.02576639441967      2.38064074104048
| 63>   H         -10.40110215202595      8.23461536819160      3.84618656509054
| 64> *
| 65> 
| 66>                          ****END OF INPUT****
================================================================================

                       *****************************
                       * Geometry Optimization Run *
                       *****************************

Geometry optimization settings:
Update method            Update   .... BFGS
Choice of coordinates    CoordSys .... (2022) Redundant Internals
Initial Hessian          InHess   .... Almloef's Model
Max. no of cycles        MaxIter  .... 162

Convergence Tolerances:
Energy Change            TolE     ....  5.0000e-06 Eh
Max. Gradient            TolMAXG  ....  3.0000e-04 Eh/bohr
RMS Gradient             TolRMSG  ....  1.0000e-04 Eh/bohr
Max. Displacement        TolMAXD  ....  4.0000e-03 bohr
RMS Displacement         TolRMSD  ....  2.0000e-03 bohr
Strict Convergence                .... False

------------------------------------------------------------------------------
                        ORCA OPTIMIZATION COORDINATE SETUP
------------------------------------------------------------------------------

The optimization will be done in redundant internal coordinates (2022)
Making redundant internal coordinates   ...  (2022 redundants) done
Evaluating the initial hessian          ...  (Almloef) done
Evaluating the coordinates              ...  done
Calculating the B-matrix                .... done
Calculating the G-matrix                .... done
The number of degrees of freedom        ....  308

    -----------------------------------------------------------------
                    Redundant Internal Coordinates


    -----------------------------------------------------------------
         Definition                    Initial Value    Approx d2E/dq
    -----------------------------------------------------------------
      1. B(C   2,C   1)                  1.3863         0.633302   
      2. B(C   3,C   2)                  1.3822         0.642852   
      3. B(C   4,P   0)                  1.8112         0.446990   
      4. B(C   4,C   3)                  1.3939         0.615836   
      5. B(C   5,C   1)                  1.3862         0.633627   
      6. B(C   6,C   4)                  1.3897         0.625379   
      7. B(C   6,C   5)                  1.3836         0.639692   
      8. B(C   8,C   7)                  1.3836         0.639673   
      9. B(C   9,C   8)                  1.3854         0.635484   
     10. B(C  10,C   9)                  1.3879         0.629707   
     11. B(C  11,C  10)                  1.3804         0.647302   
     12. B(C  12,C  11)                  1.3956         0.612075   
     13. B(C  12,C   7)                  1.3911         0.622382   
     14. B(C  12,P   0)                  1.8167         0.437976   
     15. B(C  14,C  13)                  1.3847         0.637069   
     16. B(C  15,C  14)                  1.3885         0.628217   
     17. B(C  15,P   0)                  1.8079         0.452401   
     18. B(C  16,C  13)                  1.3850         0.636481   
     19. B(C  17,C  16)                  1.3873         0.630977   
     20. B(C  18,C  17)                  1.3810         0.645733   
     21. B(C  18,C  15)                  1.3929         0.618236   
     22. B(H  20,C   1)                  1.0796         0.374140   
     23. B(H  21,C   2)                  1.0799         0.373694   
     24. B(H  22,C   5)                  1.0793         0.374563   
     25. B(H  23,C   6)                  1.0798         0.373874   
     26. B(H  24,C   3)                  1.0826         0.370041   
     27. B(H  25,C  14)                  1.0813         0.371818   
     28. B(H  26,C  13)                  1.0799         0.373747   
     29. B(H  27,C  16)                  1.0796         0.374163   
     30. B(H  28,C  17)                  1.0792         0.374620   
     31. B(H  29,C  18)                  1.0815         0.371556   
     32. B(H  30,C  11)                  1.0826         0.370053   
     33. B(H  31,C  10)                  1.0796         0.374113   
     34. B(H  32,C   9)                  1.0794         0.374432   
     35. B(H  33,C   8)                  1.0799         0.373755   
     36. B(H  34,C   7)                  1.0811         0.372117   
     37. B(C  35,P   0)                  1.7545         0.550507   
     38. B(C  36,C  35)                  1.4234         0.552749   
     39. B(C  37,C  36)                  1.4008         0.600504   
     40. B(C  38,C  37)                  1.3919         0.620488   
     41. B(C  39,C  38)                  1.3858         0.634402   
     42. B(C  39,H  19)                  1.0718         0.384976   
     43. B(C  40,C  35)                  1.4215         0.556515   
     44. B(C  41,C  40)                  1.4019         0.598138   
     45. B(C  42,C  41)                  1.3910         0.622488   
     46. B(C  43,C  42)                  1.3852         0.635816   
     47. B(N  44,C  39)                  1.3459         0.658096   
     48. B(N  44,C  36)                  1.3660         0.611180   
     49. B(N  45,C  43)                  1.3444         0.661619   
     50. B(N  45,C  40)                  1.3695         0.603398   
     51. B(B  46,N  45)                  1.5424         0.370355   
     52. B(B  46,N  44)                  1.5401         0.373402   
     53. B(F  47,B  46)                  1.3931         0.595489   
     54. B(F  48,B  46)                  1.3763         0.633323   
     55. B(H  49,C  42)                  1.0725         0.383961   
     56. B(H  50,C  43)                  1.0719         0.384901   
     57. B(H  51,C  41)                  1.0737         0.382300   
     58. B(H  52,C  37)                  1.0754         0.379911   
     59. B(H  53,C  38)                  1.0725         0.383994   
     60. A(C   4,P   0,C  12)          109.3705         0.437664   
     61. A(C  15,P   0,C  35)          111.7971         0.457187   
     62. A(C   4,P   0,C  35)          112.2595         0.456185   
     63. A(C   4,P   0,C  15)          102.3147         0.440231   
     64. A(C  12,P   0,C  15)          108.2420         0.438615   
     65. A(C  12,P   0,C  35)          112.3355         0.454496   
     66. A(C   5,C   1,H  20)          119.9656         0.356517   
     67. A(C   2,C   1,C   5)          120.2058         0.437438   
     68. A(C   2,C   1,H  20)          119.8253         0.356486   
     69. A(C   3,C   2,H  21)          119.9203         0.357321   
     70. A(C   1,C   2,C   3)          119.9221         0.438580   
     71. A(C   1,C   2,H  21)          120.1570         0.356413   
     72. A(C   2,C   3,C   4)          119.8036         0.436374   
     73. A(C   4,C   3,H  24)          119.6683         0.354136   
     74. A(C   2,C   3,H  24)          120.5281         0.356725   
     75. A(P   0,C   4,C   3)          117.4679         0.436131   
     76. A(P   0,C   4,C   6)          121.8959         0.437341   
     77. A(C   3,C   4,C   6)          120.2475         0.434214   
     78. A(C   1,C   5,C   6)          120.2900         0.438231   
     79. A(C   6,C   5,H  22)          119.6201         0.357163   
     80. A(C   1,C   5,H  22)          120.0896         0.356585   
     81. A(C   4,C   6,H  23)          119.9700         0.355681   
     82. A(C   5,C   6,H  23)          120.5505         0.357051   
     83. A(C   4,C   6,C   5)          119.4748         0.437197   
     84. A(C  12,C   7,H  34)          120.1779         0.355108   
     85. A(C   8,C   7,H  34)          120.2159         0.356763   
     86. A(C   8,C   7,C  12)          119.6045         0.436816   
     87. A(C   7,C   8,H  33)          119.6371         0.357030   
     88. A(C   9,C   8,H  33)          120.0265         0.356632   
     89. A(C   7,C   8,C   9)          120.3357         0.438460   
     90. A(C  10,C   9,H  32)          119.9229         0.356188   
     91. A(C   8,C   9,H  32)          119.9356         0.356741   
     92. A(C   8,C   9,C  10)          120.1373         0.437220   
     93. A(C   9,C  10,H  31)          120.1049         0.356137   
     94. A(C  11,C  10,H  31)          119.9777         0.357808   
     95. A(C   9,C  10,C  11)          119.9145         0.438675   
     96. A(C  10,C  11,C  12)          120.0056         0.436435   
     97. A(C  10,C  11,H  30)          120.8440         0.357145   
     98. A(C  12,C  11,H  30)          119.1500         0.353770   
     99. A(P   0,C  12,C   7)          123.8073         0.435362   
    100. A(C   7,C  12,C  11)          119.9560         0.433361   
    101. A(P   0,C  12,C  11)          115.7369         0.434055   
    102. A(C  14,C  13,H  26)          119.6993         0.356781   
    103. A(C  14,C  13,C  16)          120.2010         0.438261   
    104. A(C  16,C  13,H  26)          120.0997         0.356725   
    105. A(C  13,C  14,C  15)          119.4086         0.437230   
    106. A(C  15,C  14,H  25)          120.1960         0.355622   
    107. A(C  13,C  14,H  25)          120.3902         0.356468   
    108. A(C  14,C  15,C  18)          120.4630         0.434873   
    109. A(P   0,C  15,C  18)          116.4261         0.437384   
    110. A(P   0,C  15,C  14)          122.9528         0.438649   
    111. A(C  17,C  16,H  27)          119.8724         0.356267   
    112. A(C  13,C  16,H  27)          119.8436         0.356793   
    113. A(C  13,C  16,C  17)          120.2839         0.437503   
    114. A(C  16,C  17,C  18)          119.9309         0.438643   
    115. A(C  18,C  17,H  28)          119.9283         0.357743   
    116. A(C  16,C  17,H  28)          120.1407         0.356341   
    117. A(C  15,C  18,C  17)          119.6924         0.437032   
    118. A(C  15,C  18,H  29)          119.3503         0.354615   
    119. A(C  17,C  18,H  29)          120.9434         0.357244   
    120. A(P   0,C  35,C  36)          116.6195         0.444096   
    121. A(C  36,C  35,C  40)          119.1167         0.417093   
    122. A(P   0,C  35,C  40)          123.6692         0.444642   
    123. A(C  35,C  36,C  37)          130.8281         0.422792   
    124. A(C  37,C  36,N  44)          108.4349         0.427661   
    125. A(C  35,C  36,N  44)          120.7072         0.421368   
    126. A(C  36,C  37,C  38)          106.7242         0.431641   
    127. A(C  38,C  37,H  52)          127.4721         0.356175   
    128. A(C  36,C  37,H  52)          125.7601         0.354203   
    129. A(C  39,C  38,H  53)          126.2030         0.358170   
    130. A(C  37,C  38,H  53)          126.9128         0.356822   
    131. A(C  37,C  38,C  39)          106.8839         0.435926   
    132. A(C  38,C  39,N  44)          109.6934         0.437685   
    133. A(H  19,C  39,N  44)          120.4187         0.358335   
    134. A(H  19,C  39,C  38)          129.8873         0.358326   
    135. A(C  41,C  40,N  45)          108.1476         0.426378   
    136. A(C  35,C  40,N  45)          119.0445         0.420915   
    137. A(C  35,C  40,C  41)          132.7488         0.423007   
    138. A(C  40,C  41,H  51)          126.6202         0.354342   
    139. A(C  42,C  41,H  51)          126.4925         0.356749   
    140. A(C  40,C  41,C  42)          106.8449         0.431584   
    141. A(C  43,C  42,H  49)          126.2825         0.358300   
    142. A(C  41,C  42,H  49)          126.7773         0.357012   
    143. A(C  41,C  42,C  43)          106.9399         0.436354   
    144. A(N  45,C  43,H  50)          120.4062         0.358649   
    145. A(C  42,C  43,H  50)          129.9147         0.358449   
    146. A(C  42,C  43,N  45)          109.6781         0.438282   
    147. A(C  39,N  44,B  46)          128.4873         0.399108   
    148. A(C  36,N  44,B  46)          122.9256         0.393960   
    149. A(C  36,N  44,C  39)          108.2578         0.431909   
    150. A(C  43,N  45,B  46)          126.9949         0.398908   
    151. A(C  40,N  45,B  46)          124.4305         0.392513   
    152. A(C  40,N  45,C  43)          108.3811         0.431329   
    153. A(F  47,B  46,F  48)          109.8043         0.430704   
    154. A(N  45,B  46,F  48)          110.7997         0.397557   
    155. A(N  44,B  46,F  48)          111.1534         0.398130   
    156. A(N  45,B  46,F  47)          109.3366         0.393285   
    157. A(N  44,B  46,F  47)          109.1661         0.393850   
    158. A(N  44,B  46,N  45)          106.5072         0.364278   
    159. D(H  21,C   2,C   1,H  20)      0.4009         0.027827   
    160. D(H  21,C   2,C   1,C   5)   -178.9423         0.027827   
    161. D(C   3,C   2,C   1,C   5)      0.7813         0.027827   
    162. D(C   3,C   2,C   1,H  20)   -179.8755         0.027827   
    163. D(C   4,C   3,C   2,H  21)   -179.4115         0.028730   
    164. D(H  24,C   3,C   2,C   1)   -179.1493         0.028730   
    165. D(H  24,C   3,C   2,H  21)      0.5750         0.028730   
    166. D(C   4,C   3,C   2,C   1)      0.8642         0.028730   
    167. D(C   6,C   4,P   0,C  15)   -111.2269         0.010000   
    168. D(P   0,C   4,C   3,C   2)   -175.5684         0.026222   
    169. D(C   6,C   4,P   0,C  12)    134.1669         0.010000   
    170. D(C   3,C   4,P   0,C  12)    -52.9777         0.010000   
    171. D(C   3,C   4,P   0,C  15)     61.6285         0.010000   
    172. D(C   3,C   4,P   0,C  35)   -178.3700         0.010000   
    173. D(C   6,C   4,C   3,C   2)     -2.5897         0.026222   
    174. D(P   0,C   4,C   3,H  24)      4.4450         0.026222   
    175. D(C   6,C   4,C   3,H  24)    177.4237         0.026222   
    176. D(H  22,C   5,C   1,H  20)     -0.2542         0.027858   
    177. D(H  22,C   5,C   1,C   2)    179.0881         0.027858   
    178. D(C   6,C   5,C   1,C   2)     -0.7154         0.027858   
    179. D(C   6,C   5,C   1,H  20)    179.9423         0.027858   
    180. D(H  23,C   6,C   5,H  22)     -0.0228         0.028429   
    181. D(C   4,C   6,C   5,H  22)    179.1969         0.028429   
    182. D(C   4,C   6,C   5,C   1)     -0.9987         0.028429   
    183. D(H  23,C   6,C   5,C   1)    179.7816         0.028429   
    184. D(H  23,C   6,C   4,P   0)     -5.4659         0.027092   
    185. D(H  23,C   6,C   4,C   3)   -178.1266         0.027092   
    186. D(C   5,C   6,C   4,C   3)      2.6491         0.027092   
    187. D(C   5,C   6,C   4,P   0)    175.3098         0.027092   
    188. D(C   9,C   8,C   7,C  12)      0.6442         0.028427   
    189. D(C   9,C   8,C   7,H  34)   -179.8295         0.028427   
    190. D(H  33,C   8,C   7,H  34)     -0.1531         0.028427   
    191. D(H  33,C   8,C   7,C  12)   -179.6794         0.028427   
    192. D(H  32,C   9,C   8,C   7)    179.8852         0.028032   
    193. D(H  32,C   9,C   8,H  33)      0.2100         0.028032   
    194. D(C  10,C   9,C   8,H  33)   -179.0464         0.028032   
    195. D(C  10,C   9,C   8,C   7)      0.6288         0.028032   
    196. D(H  31,C  10,C   9,H  32)     -0.1701         0.027492   
    197. D(H  31,C  10,C   9,C   8)    179.0864         0.027492   
    198. D(C  11,C  10,C   9,H  32)   -179.5568         0.027492   
    199. D(C  11,C  10,C   9,C   8)     -0.3003         0.027492   
    200. D(H  30,C  11,C  10,H  31)     -0.9119         0.029157   
    201. D(H  30,C  11,C  10,C   9)    178.4756         0.029157   
    202. D(C  12,C  11,C  10,H  31)    179.3175         0.029157   
    203. D(C  12,C  11,C  10,C   9)     -1.2950         0.029157   
    204. D(C   7,C  12,C  11,H  30)   -177.2057         0.025884   
    205. D(C   7,C  12,C  11,C  10)      2.5687         0.025884   
    206. D(P   0,C  12,C  11,H  30)     -5.0087         0.025884   
    207. D(C  11,C  12,C   7,H  34)    178.2388         0.026817   
    208. D(C  11,C  12,C   7,C   8)     -2.2348         0.026817   
    209. D(P   0,C  12,C   7,H  34)      6.7026         0.026817   
    210. D(P   0,C  12,C   7,C   8)   -173.7709         0.026817   
    211. D(C  11,C  12,P   0,C  15)     64.5708         0.010000   
    212. D(P   0,C  12,C  11,C  10)    174.7658         0.025884   
    213. D(C  11,C  12,P   0,C   4)    175.2981         0.010000   
    214. D(C   7,C  12,P   0,C  35)    112.5080         0.010000   
    215. D(C   7,C  12,P   0,C  15)   -123.5677         0.010000   
    216. D(C   7,C  12,P   0,C   4)    -12.8404         0.010000   
    217. D(H  25,C  14,C  13,H  26)      0.2229         0.028181   
    218. D(H  25,C  14,C  13,C  16)   -179.7282         0.028181   
    219. D(C  15,C  14,C  13,H  26)    179.3936         0.028181   
    220. D(C  15,C  14,C  13,C  16)     -0.5575         0.028181   
    221. D(C  14,C  15,P   0,C   4)   -107.3343         0.010000   
    222. D(C  18,C  15,C  14,C  13)      1.5494         0.027354   
    223. D(P   0,C  15,C  14,H  25)     -4.0130         0.027354   
    224. D(P   0,C  15,C  14,C  13)    176.8147         0.027354   
    225. D(C  18,C  15,P   0,C  12)   -176.4614         0.010000   
    226. D(C  18,C  15,P   0,C   4)     68.1088         0.010000   
    227. D(C  14,C  15,P   0,C  35)    132.3423         0.010000   
    228. D(C  18,C  15,C  14,H  25)   -179.2783         0.027354   
    229. D(C  14,C  15,P   0,C  12)      8.0955         0.010000   
    230. D(H  27,C  16,C  13,C  14)    179.7439         0.028126   
    231. D(C  17,C  16,C  13,H  26)    179.7267         0.028126   
    232. D(H  27,C  16,C  13,H  26)     -0.2070         0.028126   
    233. D(C  17,C  16,C  13,C  14)     -0.3224         0.028126   
    234. D(H  28,C  17,C  16,H  27)      0.0906         0.027610   
    235. D(H  28,C  17,C  16,C  13)   -179.8431         0.027610   
    236. D(C  18,C  17,C  16,H  27)   -179.8503         0.027610   
    237. D(C  18,C  17,C  16,C  13)      0.2160         0.027610   
    238. D(H  29,C  18,C  17,C  16)    179.4041         0.029006   
    239. D(C  15,C  18,C  17,H  28)   -179.1739         0.029006   
    240. D(C  15,C  18,C  17,C  16)      0.7671         0.029006   
    241. D(H  29,C  18,C  15,C  14)    179.6826         0.026439   
    242. D(H  29,C  18,C  15,P   0)      4.1185         0.026439   
    243. D(C  17,C  18,C  15,C  14)     -1.6586         0.026439   
    244. D(H  29,C  18,C  17,H  28)     -0.5370         0.029006   
    245. D(C  17,C  18,C  15,P   0)   -177.2227         0.026439   
    246. D(C  40,C  35,P   0,C  12)     99.7510         0.010000   
    247. D(C  40,C  35,P   0,C   4)   -136.4959         0.010000   
    248. D(C  36,C  35,P   0,C  15)    166.7687         0.010000   
    249. D(C  36,C  35,P   0,C  12)    -71.3078         0.010000   
    250. D(C  36,C  35,P   0,C   4)     52.4453         0.010000   
    251. D(N  44,C  36,C  35,C  40)     15.4237         0.020908   
    252. D(N  44,C  36,C  35,P   0)   -173.0907         0.020908   
    253. D(C  37,C  36,C  35,C  40)   -162.3461         0.020908   
    254. D(C  37,C  36,C  35,P   0)      9.1394         0.020908   
    255. D(H  52,C  37,C  36,N  44)   -177.6837         0.024862   
    256. D(H  52,C  37,C  36,C  35)      0.2952         0.024862   
    257. D(C  38,C  37,C  36,N  44)      0.0583         0.024862   
    258. D(C  38,C  37,C  36,C  35)    178.0372         0.024862   
    259. D(H  53,C  38,C  37,H  52)     -1.7073         0.026644   
    260. D(H  53,C  38,C  37,C  36)   -179.3985         0.026644   
    261. D(C  39,C  38,C  37,H  52)    178.0922         0.026644   
    262. D(C  39,C  38,C  37,C  36)      0.4010         0.026644   
    263. D(N  44,C  39,C  38,H  53)    179.0683         0.027930   
    264. D(N  44,C  39,C  38,C  37)     -0.7331         0.027930   
    265. D(H  19,C  39,C  38,H  53)     -0.6529         0.027930   
    266. D(H  19,C  39,C  38,C  37)    179.5457         0.027930   
    267. D(N  45,C  40,C  35,C  36)    -15.7869         0.021205   
    268. D(N  45,C  40,C  35,P   0)    173.3645         0.021205   
    269. D(C  41,C  40,C  35,C  36)    161.0469         0.021205   
    270. D(C  41,C  40,C  35,P   0)     -9.8017         0.021205   
    271. D(H  51,C  41,C  40,N  45)    177.4695         0.024656   
    272. D(H  51,C  41,C  40,C  35)      0.3821         0.024656   
    273. D(C  42,C  41,C  40,N  45)     -0.2756         0.024656   
    274. D(C  42,C  41,C  40,C  35)   -177.3629         0.024656   
    275. D(H  49,C  42,C  41,H  51)      1.7519         0.026826   
    276. D(H  49,C  42,C  41,C  40)    179.5007         0.026826   
    277. D(C  43,C  42,C  41,H  51)   -178.0473         0.026826   
    278. D(C  43,C  42,C  41,C  40)     -0.2986         0.026826   
    279. D(H  50,C  43,C  42,H  49)      0.6077         0.028063   
    280. D(H  50,C  43,C  42,C  41)   -179.5918         0.028063   
    281. D(N  45,C  43,C  42,H  49)   -179.0155         0.028063   
    282. D(N  45,C  43,C  42,C  41)      0.7850         0.028063   
    283. D(B  46,N  44,C  36,C  35)      7.3505         0.030181   
    284. D(C  39,N  44,C  36,C  37)     -0.5119         0.030181   
    285. D(C  39,N  44,C  36,C  35)   -178.7332         0.030181   
    286. D(B  46,N  44,C  39,C  38)    174.2505         0.035422   
    287. D(B  46,N  44,C  39,H  19)     -5.9976         0.035422   
    288. D(C  36,N  44,C  39,C  38)      0.7762         0.035422   
    289. D(C  36,N  44,C  39,H  19)   -179.4719         0.035422   
    290. D(B  46,N  44,C  36,C  37)   -174.4282         0.030181   
    291. D(B  46,N  45,C  43,H  50)      4.2785         0.035836   
    292. D(B  46,N  45,C  43,C  42)   -176.0565         0.035836   
    293. D(C  40,N  45,C  43,H  50)    179.3687         0.035836   
    294. D(C  40,N  45,C  43,C  42)     -0.9664         0.035836   
    295. D(B  46,N  45,C  40,C  41)    176.0101         0.029361   
    296. D(B  46,N  45,C  40,C  35)     -6.4362         0.029361   
    297. D(C  43,N  45,C  40,C  41)      0.7640         0.029361   
    298. D(C  43,N  45,C  40,C  35)    178.3178         0.029361   
    299. D(F  48,B  46,N  45,C  40)    146.0588         0.010000   
    300. D(F  47,B  46,N  45,C  43)     81.5651         0.010000   
    301. D(F  47,B  46,N  45,C  40)    -92.7837         0.010000   
    302. D(N  44,B  46,N  45,C  43)   -160.6026         0.010000   
    303. D(N  44,B  46,N  45,C  40)     25.0486         0.010000   
    304. D(F  48,B  46,N  44,C  36)   -146.0211         0.010000   
    305. D(F  47,B  46,N  44,C  39)    -79.9052         0.010000   
    306. D(F  47,B  46,N  44,C  36)     92.7073         0.010000   
    307. D(N  45,B  46,N  44,C  39)    162.1500         0.010000   
    308. D(N  45,B  46,N  44,C  36)    -25.2375         0.010000   
    -----------------------------------------------------------------

Number of atoms                         .... 54
Number of degrees of freedom            .... 308


         *************************************************************
         *                GEOMETRY OPTIMIZATION CYCLE   1            *
         *************************************************************
---------------------------------
CARTESIAN COORDINATES (ANGSTROEM)
---------------------------------
  P    -6.361868   10.819523    1.431304
  C    -7.722514   13.980159    4.444310
  C    -7.570496   14.299630    3.103896
  C    -7.189620   13.324302    2.201526
  C    -6.977456   12.018610    2.641074
  C    -7.478060   12.689033    4.885593
  C    -7.095052   11.706279    3.990154
  C    -8.684729   11.449882   -0.070237
  C    -9.488792   11.297606   -1.185866
  C    -9.063944   10.524889   -2.254368
  C    -7.832314    9.886923   -2.206759
  C    -7.026556   10.027879   -1.094869
  C    -7.438629   10.832798   -0.031854
  C    -3.303428   12.707156   -0.519921
  C    -4.535917   12.129933   -0.264593
  C    -4.764907   11.527251    0.965167
  C    -2.313287   12.692576    0.448331
  C    -2.550637   12.105936    1.682906
  C    -3.777465   11.529653    1.947536
  H    -8.612457    6.328906    4.551137
  H    -8.022007   14.742695    5.147413
  H    -7.744611   15.309690    2.763787
  H    -7.582743   12.445886    5.931904
  H    -6.900163   10.700018    4.329840
  H    -7.054691   13.565967    1.154919
  H    -5.309656   12.135708   -1.019886
  H    -3.116940   13.168497   -1.478313
  H    -1.353093   13.140653    0.241617
  H    -1.778253   12.098115    2.436644
  H    -3.976950   11.059442    2.900791
  H    -6.074003    9.517399   -1.031384
  H    -7.508168    9.272960   -3.033520
  H    -9.697230   10.408973   -3.120720
  H   -10.454042   11.780671   -1.218382
  H    -9.019352   12.051067    0.763612
  C    -6.187774    9.213795    2.116470
  C    -7.326016    8.677470    2.781820
  C    -8.646835    9.138540    2.853088
  C    -9.357538    8.203944    3.600597
  C    -8.458871    7.215037    3.968064
  C    -5.063792    8.375256    1.883685
  C    -3.978096    8.462421    1.001130
  C    -3.217810    7.311781    1.182497
  C    -3.846480    6.563155    2.163939
  N    -7.242767    7.497883    3.465629
  N    -4.959472    7.196591    2.573148
  B    -5.911469    6.761797    3.706072
  F    -5.382862    7.161200    4.931519
  F    -6.089927    5.397131    3.697737
  H    -2.317891    7.048082    0.661978
  H    -3.572094    5.618637    2.589969
  H    -3.790069    9.246925    0.292565
  H    -9.029137   10.025766    2.380641
  H   -10.401102    8.234615    3.846187

----------------------------
CARTESIAN COORDINATES (A.U.)
----------------------------
  NO LB    ZA    FRAG    MASS        X           Y           Z
   0 P  15.0000    0    30.974  -12.022189   20.445936    2.704772
   1 C   6.0000    0    12.011  -14.593437   26.418672    8.398529
   2 C   6.0000    0    12.011  -14.306165   27.022384    5.865512
   3 C   6.0000    0    12.011  -13.586413   25.179281    4.160282
   4 C   6.0000    0    12.011  -13.185481   22.711881    4.990907
   5 C   6.0000    0    12.011  -14.131485   23.978798    9.232432
   6 C   6.0000    0    12.011  -13.407706   22.121662    7.540298
   7 C   6.0000    0    12.011  -16.411759   21.637141   -0.132729
   8 C   6.0000    0    12.011  -17.931219   21.349382   -2.240963
   9 C   6.0000    0    12.011  -17.128371   19.889157   -4.260139
  10 C   6.0000    0    12.011  -14.800928   18.683576   -4.170170
  11 C   6.0000    0    12.011  -13.278266   18.949945   -2.069002
  12 C   6.0000    0    12.011  -14.056971   20.471021   -0.060196
  13 C   6.0000    0    12.011   -6.242574   24.013044   -0.982509
  14 C   6.0000    0    12.011   -8.571641   22.922251   -0.500008
  15 C   6.0000    0    12.011   -9.004369   21.783348    1.823901
  16 C   6.0000    0    12.011   -4.371479   23.985493    0.847223
  17 C   6.0000    0    12.011   -4.820005   22.876903    3.180232
  18 C   6.0000    0    12.011   -7.138374   21.787887    3.680309
  19 H   1.0000    0     1.008  -16.275185   11.959898    8.600402
  20 H   1.0000    0     1.008  -15.159397   27.859655    9.727201
  21 H   1.0000    0     1.008  -14.635194   28.931121    5.222800
  22 H   1.0000    0     1.008  -14.329308   23.519316   11.209675
  23 H   1.0000    0     1.008  -13.039418   20.220104    8.182212
  24 H   1.0000    0     1.008  -13.331435   25.635963    2.182481
  25 H   1.0000    0     1.008  -10.033795   22.933164   -1.927306
  26 H   1.0000    0     1.008   -5.890163   24.884854   -2.793607
  27 H   1.0000    0     1.008   -2.556976   24.832235    0.456590
  28 H   1.0000    0     1.008   -3.360411   22.862124    4.604589
  29 H   1.0000    0     1.008   -7.515346   20.899317    5.481700
  30 H   1.0000    0     1.008  -11.478203   17.985277   -1.949033
  31 H   1.0000    0     1.008  -14.188382   17.523355   -5.732522
  32 H   1.0000    0     1.008  -18.325109   19.670108   -5.897305
  33 H   1.0000    0     1.008  -19.755277   22.262242   -2.302409
  34 H   1.0000    0     1.008  -17.044105   22.773217    1.443017
  35 C   6.0000    0    12.011  -11.693199   17.411550    3.999548
  36 C   6.0000    0    12.011  -13.844164   16.398042    5.256878
  37 C   6.0000    0    12.011  -16.340149   17.269338    5.391555
  38 C   6.0000    0    12.011  -17.683184   15.503207    6.804142
  39 C   6.0000    0    12.011  -15.984950   13.634443    7.498554
  40 C   6.0000    0    12.011   -9.569180   15.826941    3.559649
  41 C   6.0000    0    12.011   -7.517512   15.991658    1.891861
  42 C   6.0000    0    12.011   -6.080780   13.817263    2.234596
  43 C   6.0000    0    12.011   -7.268794   12.402566    4.089251
  44 N   7.0000    0    14.007  -13.686846   14.168946    6.549089
  45 N   7.0000    0    14.007   -9.372043   13.599587    4.862545
  46 B   5.0000    0    10.810  -11.171058   12.777945    7.003462
  47 F   9.0000    0    18.998  -10.172136   13.532708    9.319219
  48 F   9.0000    0    18.998  -11.508295   10.199100    6.987711
  49 H   1.0000    0     1.008   -4.380180   13.318944    1.250957
  50 H   1.0000    0     1.008   -6.750279   10.617686    4.894332
  51 H   1.0000    0     1.008   -7.162192   17.474156    0.552868
  52 H   1.0000    0     1.008  -17.062596   18.945953    4.498759
  53 H   1.0000    0     1.008  -19.655235   15.561168    7.268239

      -----------------------------------------------------------      
     |                   =====================                   |     
     |                           x T B                           |     
     |                   =====================                   |     
     |                         S. Grimme                         |     
     |          Mulliken Center for Theoretical Chemistry        |     
     |                    University of Bonn                     |     
      -----------------------------------------------------------      

   * xtb version 6.7.1 (edcfbbe) compiled by 'albert@albert-system' on 2024-07-22

   xtb is free software: you can redistribute it and/or modify it under
   the terms of the GNU Lesser General Public License as published by
   the Free Software Foundation, either version 3 of the License, or
   (at your option) any later version.
   
   xtb is distributed in the hope that it will be useful,
   but WITHOUT ANY WARRANTY; without even the implied warranty of
   MERCHANTABILITY or FITNESS FOR A PARTICULAR PURPOSE.  See the
   GNU Lesser General Public License for more details.
   
   Cite this work as:
   * C. Bannwarth, E. Caldeweyher, S. Ehlert, A. Hansen, P. Pracht,
     J. Seibert, S. Spicher, S. Grimme, WIREs Comput. Mol. Sci., 2020, 11,
     e01493. DOI: 10.1002/wcms.1493
   
   for GFN2-xTB:
   * C. Bannwarth, S. Ehlert and S. Grimme., J. Chem. Theory Comput., 2019,
     15, 1652-1671. DOI: 10.1021/acs.jctc.8b01176
   for GFN1-xTB:
   * S. Grimme, C. Bannwarth, P. Shushkov, J. Chem. Theory Comput., 2017,
     13, 1989-2009. DOI: 10.1021/acs.jctc.7b00118
   for GFN0-xTB:
   * P. Pracht, E. Caldeweyher, S. Ehlert, S. Grimme, ChemRxiv, 2019, preprint.
     DOI: 10.26434/chemrxiv.8326202.v1
   for GFN-FF:
   * S. Spicher and S. Grimme, Angew. Chem. Int. Ed., 2020, 59, 15665-15673.
     DOI: 10.1002/anie.202004239
   
   for ALPB and GBSA implicit solvation:
   * S. Ehlert, M. Stahn, S. Spicher, S. Grimme, J. Chem. Theory Comput.,
     2021, 17, 4250-4261. DOI: 10.1021/acs.jctc.1c00471
   
   for ddCOSMO and CPCM-X implicit solvation:
   * M. Stahn, S. Ehlert, S. Grimme, J. Phys. Chem. A,
     2023, XX, XXXX-XXXX. DOI: 10.1021/acs.jpca.3c04382
   
   for DFT-D4:
   * E. Caldeweyher, C. Bannwarth and S. Grimme, J. Chem. Phys., 2017,
     147, 034112. DOI: 10.1063/1.4993215
   * E. Caldeweyher, S. Ehlert, A. Hansen, H. Neugebauer, S. Spicher,
     C. Bannwarth and S. Grimme, J. Chem. Phys., 2019, 150, 154122.
     DOI: 10.1063/1.5090222
   * E. Caldeweyher, J.-M. Mewes, S. Ehlert and S. Grimme, Phys. Chem. Chem. Phys.
     2020, 22, 8499-8512. DOI: 10.1039/D0CP00502A
   
   for sTDA-xTB:
   * S. Grimme and C. Bannwarth, J. Chem. Phys., 2016, 145, 054103.
     DOI: 10.1063/1.4959605
   
   in the mass-spec context:
   * V. Asgeirsson, C. Bauer and S. Grimme, Chem. Sci., 2017, 8, 4879.
     DOI: 10.1039/c7sc00601b
   * J. Koopman and S. Grimme, ACS Omega 2019, 4, 12, 15120-15133.
     DOI: 10.1021/acsomega.9b02011
   
   for metadynamics refer to:
   * S. Grimme, J. Chem. Theory Comput., 2019, 155, 2847-2862
     DOI: 10.1021/acs.jctc.9b00143
   
   for SPH calculations refer to:
   * S. Spicher and S. Grimme, J. Chem. Theory Comput., 2021, 17, 1701-1714
     DOI: 10.1021/acs.jctc.0c01306
   
   for ONIOM refer to:
   * C. Plett, A. Katbashev, S. Ehlert, S. Grimme, M. Bursch,
     Phys. Chem. Chem. Phys., 2023, 25, 17860-17868. DOI: 10.1039/D3CP02178E
   
   for DIPRO refer to:
   * J. Kohn, N. Gildemeister, S. Grimme, D. Fazzi, A. Hansen,
     J. Chem. Phys., 2023, just accepted.
   
   for PTB refer to:
   * S. Grimme, M. Mueller, A. Hansen, J. Chem. Phys., 2023, 158, 124111.
     DOI: 10.1063/5.0137838
   
   with help from (in alphabetical order)
   P. Atkinson, C. Bannwarth, F. Bohle, G. Brandenburg, E. Caldeweyher
   M. Checinski, S. Dohm, S. Ehlert, S. Ehrlich, I. Gerasimov, C. Hölzer
   A. Katbashev, J. Kohn, J. Koopman, C. Lavigne, S. Lehtola, F. März, M. Müller,
   F. Musil, H. Neugebauer, J. Pisarek, C. Plett, P. Pracht, F. Pultar,
   J. Seibert, P. Shushkov, S. Spicher, M. Stahn, M. Steiner, T. Strunk,
   J. Stückrath, T. Rose, and J. Unsleber
   
 * started run on 2025/10/30 at 12:28:10.759     
   ID    Z sym.   atoms
    1   15 P      1
    2    6 C      2-19, 36-44
    3    1 H      20-35, 50-54
    4    7 N      45, 46
    5    5 B      47
    6    9 F      48, 49

           -------------------------------------------------
          |                Calculation Setup                |
           -------------------------------------------------

          program call               : otool_xtb TPP_Opt_XTB.xyz --grad -c 0 -u 0 -P 1 --namespace TPP_Opt --input TPP_Opt_XTB.input.tmp --acc 0.200000
          calculation namespace      : TPP_Opt
          coordinate file            : TPP_Opt_XTB.xyz
          omp threads                :                     1


           -------------------------------------------------
          |                 G F N 2 - x T B                 |
           -------------------------------------------------

        Reference                      10.1021/acs.jctc.8b01176
      * Hamiltonian:
        H0-scaling (s, p, d)           1.850000    2.230000    2.230000
        zeta-weighting                 0.500000
      * Dispersion:
        s8                             2.700000
        a1                             0.520000
        a2                             5.000000
        s9                             5.000000
      * Repulsion:
        kExp                           1.500000    1.000000
        rExp                           1.000000
      * Coulomb:
        alpha                          2.000000
        third order                    shell-resolved
        anisotropic                    true
        a3                             3.000000
        a5                             4.000000
        cn-shift                       1.200000
        cn-exp                         4.000000
        max-rad                        5.000000


          ...................................................
          :                      SETUP                      :
          :.................................................:
          :  # basis functions                 159          :
          :  # atomic orbitals                 158          :
          :  # shells                           88          :
          :  # electrons                       161          :
          :  max. iterations                   250          :
          :  Hamiltonian                  GFN2-xTB          :
          :  restarted?                      false          :
          :  GBSA solvation                  false          :
          :  PC potential                    false          :
          :  electronic temp.          300.0000000     K    :
          :  accuracy                    0.2000000          :
          :  -> integral cutoff          0.3198970E+02      :
          :  -> integral neglect         0.2000000E-08      :
          :  -> SCF convergence          0.2000000E-06 Eh   :
          :  -> wf. convergence          0.2000000E-04 e    :
          :  Broyden damping             0.4000000          :
          :  net charge                          0          :
          :  unpaired electrons                  0          :
          ...................................................

 iter      E             dE          RMSdq      gap      omega  full diag
   1    -88.9048064 -0.889048E+02  0.472E+00    1.85       0.0  T
   2    -89.0917493 -0.186943E+00  0.306E+00    0.86       1.0  T
   3    -89.0869101  0.483914E-02  0.113E+00    0.88       1.0  T
   4    -89.1127074 -0.257973E-01  0.421E-01    0.72       1.0  T
   5    -89.1189837 -0.627628E-02  0.199E-01    0.77       1.0  T
   6    -89.1202403 -0.125661E-02  0.862E-02    0.78       1.0  T
   7    -89.1205524 -0.312020E-03  0.350E-02    0.78       1.0  T
   8    -89.1205830 -0.306385E-04  0.155E-02    0.78       1.0  T
   9    -89.1205881 -0.512864E-05  0.727E-03    0.78       1.9  T
  10    -89.1205896 -0.145553E-05  0.332E-03    0.78       4.1  T
  11    -89.1205898 -0.272871E-06  0.172E-03    0.78       7.9  T
  12    -89.1205899 -0.438962E-07  0.555E-04    0.78      24.5  T
  13    -89.1205899 -0.582395E-08  0.252E-04    0.78      53.9  T
  14    -89.1205899 -0.241597E-08  0.115E-04    0.78     118.7  T
  15    -89.1205899 -0.225597E-09  0.516E-05    0.78     263.5  T

   *** convergence criteria satisfied after 15 iterations ***

         #    Occupation            Energy/Eh            Energy/eV
      -------------------------------------------------------------
         1        2.0000           -0.7300886             -19.8667
       ...           ...                  ...                  ...
        75        2.0000           -0.4112229             -11.1899
        76        2.0000           -0.4084484             -11.1144
        77        2.0000           -0.3952044             -10.7541
        78        2.0000           -0.3821464             -10.3987
        79        2.0000           -0.3808031             -10.3622
        80        2.0000           -0.3585221              -9.7559
        81        1.0000           -0.3095174              -8.4224 (HOMO)
        82        0.0000           -0.2809268              -7.6444 (LUMO)
        83                         -0.2703990              -7.3579
        84                         -0.2652890              -7.2189
        85                         -0.2571457              -6.9973
        86                         -0.2551429              -6.9428
       ...                                ...                  ...
       158                          1.0009047              27.2360
      -------------------------------------------------------------
                  HL-Gap            0.0285906 Eh            0.7780 eV
             Fermi-level           -0.3146209 Eh           -8.5613 eV

 SCC (total)                   0 d,  0 h,  0 min,  0.122 sec
 SCC setup                      ...        0 min,  0.000 sec (  0.331%)
 Dispersion                     ...        0 min,  0.001 sec (  0.647%)
 classical contributions        ...        0 min,  0.000 sec (  0.088%)
 integral evaluation            ...        0 min,  0.018 sec ( 14.725%)
 iterations                     ...        0 min,  0.051 sec ( 41.736%)
 molecular gradient             ...        0 min,  0.051 sec ( 41.542%)
 printout                       ...        0 min,  0.001 sec (  0.907%)

         :::::::::::::::::::::::::::::::::::::::::::::::::::::
         ::                     SUMMARY                     ::
         :::::::::::::::::::::::::::::::::::::::::::::::::::::
         :: total energy             -87.684718169797 Eh    ::
         :: gradient norm              0.000614848652 Eh/a0 ::
         :: HOMO-LUMO gap              0.777990518734 eV    ::
         ::.................................................::
         :: SCC energy               -89.118092348088 Eh    ::
         :: -> isotropic ES            0.105322150871 Eh    ::
         :: -> anisotropic ES         -0.003033320331 Eh    ::
         :: -> anisotropic XC          0.040624975528 Eh    ::
         :: -> dispersion             -0.080116595637 Eh    ::
         :: repulsion energy           1.433374178291 Eh    ::
         :: add. restraining           0.000000000000 Eh    ::
         :: total charge              -0.000000000005 e     ::
         :::::::::::::::::::::::::::::::::::::::::::::::::::::


Property printout bound to 'properties.out'

           -------------------------------------------------
          | TOTAL ENERGY              -87.684718169797 Eh   |
          | GRADIENT NORM               0.000614848652 Eh/α |
          | HOMO-LUMO GAP               0.777990518734 eV   |
           -------------------------------------------------

------------------------------------------------------------------------
 * finished run on 2025/10/30 at 12:28:10.904     
------------------------------------------------------------------------
 total:
 * wall-time:     0 d,  0 h,  0 min,  0.144 sec
 *  cpu-time:     0 d,  0 h,  0 min,  0.142 sec
 * ratio c/w:     0.989 speedup
 SCF:
 * wall-time:     0 d,  0 h,  0 min,  0.122 sec
 *  cpu-time:     0 d,  0 h,  0 min,  0.121 sec
 * ratio c/w:     0.988 speedup


-------------------------   --------------------
FINAL SINGLE POINT ENERGY       -87.684718169800
-------------------------   --------------------


-------------
DIPOLE MOMENT
-------------
                                X             Y             Z
Total Dipole Moment    :     -0.44700       4.61300      -2.58700
                        -----------------------------------------
Magnitude (a.u.)       :      5.30774
Magnitude (Debye)      :     13.49121


------------------
CARTESIAN GRADIENT
------------------

   1   P   :   -0.000019054    0.000031618   -0.000034195
   2   C   :   -0.000076276   -0.000025918    0.000009398
   3   C   :    0.000055643    0.000048652   -0.000037431
   4   C   :   -0.000050153   -0.000042166    0.000053444
   5   C   :    0.000009862   -0.000021354   -0.000037478
   6   C   :    0.000006130   -0.000020583   -0.000009916
   7   C   :    0.000050970    0.000008626    0.000035578
   8   C   :   -0.000072071   -0.000042353   -0.000093452
   9   C   :    0.000043154    0.000003638   -0.000009072
  10   C   :   -0.000066393    0.000008520   -0.000053445
  11   C   :    0.000031149    0.000007381    0.000047975
  12   C   :   -0.000042980   -0.000046354   -0.000037291
  13   C   :    0.000021405    0.000036879    0.000122219
  14   C   :    0.000031625   -0.000048639    0.000008623
  15   C   :   -0.000021193    0.000011216   -0.000016759
  16   C   :    0.000066080    0.000012691    0.000018522
  17   C   :   -0.000059712    0.000005449   -0.000016479
  18   C   :    0.000090574   -0.000002348   -0.000027853
  19   C   :   -0.000073518   -0.000007491    0.000001607
  20   H   :    0.000038388    0.000007480    0.000018356
  21   H   :    0.000030918    0.000018770   -0.000003788
  22   H   :   -0.000015971   -0.000001550    0.000009198
  23   H   :   -0.000000520    0.000006422    0.000002440
  24   H   :   -0.000013567   -0.000015531   -0.000007365
  25   H   :    0.000009904    0.000027204   -0.000000116
  26   H   :    0.000015754    0.000008665   -0.000003340
  27   H   :   -0.000021309    0.000010950   -0.000000337
  28   H   :    0.000008374    0.000000423    0.000027211
  29   H   :   -0.000033179   -0.000000350    0.000019559
  30   H   :    0.000030462    0.000013209    0.000008478
  31   H   :    0.000002844    0.000002273    0.000027549
  32   H   :    0.000002423    0.000004057   -0.000005624
  33   H   :    0.000008866   -0.000005303    0.000003961
  34   H   :   -0.000002966    0.000005076    0.000022641
  35   H   :    0.000016131    0.000000528    0.000017839
  36   C   :    0.000111992   -0.000023062    0.000013662
  37   C   :   -0.000162217   -0.000042917   -0.000009185
  38   C   :    0.000033257    0.000115227    0.000017498
  39   C   :    0.000056366   -0.000087822   -0.000000461
  40   C   :   -0.000133822    0.000081652    0.000039006
  41   C   :    0.000015007   -0.000071563    0.000049697
  42   C   :    0.000008090    0.000127133    0.000078397
  43   C   :   -0.000022227   -0.000029849   -0.000033361
  44   C   :    0.000015106    0.000005393    0.000010388
  45   N   :    0.000141698   -0.000078198   -0.000127608
  46   N   :   -0.000070793   -0.000013426   -0.000171553
  47   B   :   -0.000085116    0.000052529    0.000186976
  48   F   :   -0.000004571   -0.000003262   -0.000017343
  49   F   :    0.000053540   -0.000005809   -0.000022125
  50   H   :    0.000001925    0.000005356   -0.000002576
  51   H   :    0.000000827    0.000009425    0.000016866
  52   H   :    0.000015328   -0.000036516   -0.000048700
  53   H   :    0.000030220    0.000001035   -0.000042293
  54   H   :   -0.000006408   -0.000005111    0.000002060

Difference to translation invariance:
           :   -0.0000000000    0.0000000000    0.0000000000

Difference to rotation invariance:
           :    0.0000000191    0.0000000123    0.0000000384

Norm of the Cartesian gradient     ...    0.0006148487
RMS gradient                       ...    0.0000483071
MAX gradient                       ...    0.0001869759
------------------------------------------------------------------------------
                         ORCA GEOMETRY RELAXATION STEP
------------------------------------------------------------------------------

Reading the OPT-File                    .... done
Getting information on internals        .... done
Copying old internal coords+grads       .... done
Making the new internal coordinates     .... (2022 redundants) done
Validating the new internal coordinates .... (2022 redundants) done
Calculating the B-matrix                .... done
Calculating the G,G- and P matrices     .... done
Transforming gradient to internals      .... done
Projecting the internal gradient        .... done
Number of atoms                         ....  54
Number of internal coordinates          .... 308
Current Energy                          ....   -87.684718170 Eh
Current gradient norm                   ....     0.000614849 Eh/bohr
Maximum allowed component of the step   ....  0.300
Current trust radius                    ....  0.300
Evaluating the initial hessian          ....  (Almloef) done
Projecting the Hessian                  .... done
Forming the augmented Hessian           .... done
Diagonalizing the augmented Hessian     .... done
Last element of RFO vector              ....  0.999975609
Lowest eigenvalues of augmented Hessian:
 -0.000001409  0.010000000  0.010000000  0.010000000  0.010000150
Length of the computed step             ....  0.006984604
The final length of the internal step   ....  0.006984604
Converting the step to Cartesian space:
 Initial RMS(Int)=    0.0003979847
Transforming coordinates:
 Iter   0:  RMS(Cart)=    0.0017771865 RMS(Int)=    0.0003979802
done
Storing new coordinates                 .... done

                                .--------------------.
          ----------------------|Geometry convergence|-------------------------
          Item                value                   Tolerance       Converged
          ---------------------------------------------------------------------
          RMS gradient        0.0000247531            0.0001000000      YES
          MAX gradient        0.0001314444            0.0003000000      YES
          RMS step            0.0003979847            0.0020000000      YES
          MAX step            0.0016789520            0.0040000000      YES
          -------------------------------------------------------------------------
          ........................................................
          Max(Bonds)      0.0001      Max(Angles)    0.02
          Max(Dihed)        0.10      Max(Improp)    0.00
          ---------------------------------------------------------------------

                    ***********************HURRAY********************
                    ***        THE OPTIMIZATION HAS CONVERGED     ***
                    *************************************************


    ---------------------------------------------------------------------------
                         Redundant Internal Coordinates

                          --- Optimized Parameters ---  
                            (Angstroem and degrees)

        Definition                    OldVal   dE/dq     Step     FinalVal
    ----------------------------------------------------------------------------
     1. B(C   2,C   1)                1.3863  0.000011 -0.0000    1.3863   
     2. B(C   3,C   2)                1.3822 -0.000000  0.0000    1.3822   
     3. B(C   4,P   0)                1.8112 -0.000005  0.0000    1.8112   
     4. B(C   4,C   3)                1.3939  0.000007 -0.0000    1.3939   
     5. B(C   5,C   1)                1.3862  0.000014 -0.0000    1.3862   
     6. B(C   6,C   4)                1.3897  0.000022 -0.0000    1.3897   
     7. B(C   6,C   5)                1.3836 -0.000001  0.0000    1.3836   
     8. B(C   8,C   7)                1.3836 -0.000010  0.0000    1.3836   
     9. B(C   9,C   8)                1.3854  0.000002 -0.0000    1.3854   
    10. B(C  10,C   9)                1.3879  0.000031 -0.0000    1.3878   
    11. B(C  11,C  10)                1.3804 -0.000007  0.0000    1.3804   
    12. B(C  12,C  11)                1.3956  0.000009 -0.0000    1.3956   
    13. B(C  12,C   7)                1.3911  0.000025 -0.0000    1.3910   
    14. B(C  12,P   0)                1.8167 -0.000000  0.0000    1.8167   
    15. B(C  14,C  13)                1.3847 -0.000010  0.0000    1.3847   
    16. B(C  15,C  14)                1.3885  0.000008 -0.0000    1.3885   
    17. B(C  15,P   0)                1.8079  0.000027 -0.0000    1.8079   
    18. B(C  16,C  13)                1.3850 -0.000007  0.0000    1.3850   
    19. B(C  17,C  16)                1.3873 -0.000020  0.0000    1.3873   
    20. B(C  18,C  17)                1.3810  0.000009 -0.0000    1.3810   
    21. B(C  18,C  15)                1.3929 -0.000011  0.0000    1.3929   
    22. B(H  20,C   1)                1.0796  0.000002 -0.0000    1.0796   
    23. B(H  21,C   2)                1.0799 -0.000002  0.0000    1.0799   
    24. B(H  22,C   5)                1.0793  0.000001 -0.0000    1.0793   
    25. B(H  23,C   6)                1.0798  0.000010 -0.0000    1.0798   
    26. B(H  24,C   3)                1.0826  0.000007 -0.0000    1.0826   
    27. B(H  25,C  14)                1.0813 -0.000009  0.0000    1.0813   
    28. B(H  26,C  13)                1.0799  0.000001 -0.0000    1.0799   
    29. B(H  27,C  16)                1.0796  0.000002 -0.0000    1.0796   
    30. B(H  28,C  17)                1.0792 -0.000010  0.0000    1.0793   
    31. B(H  29,C  18)                1.0815 -0.000004  0.0000    1.0815   
    32. B(H  30,C  11)                1.0826  0.000003 -0.0000    1.0826   
    33. B(H  31,C  10)                1.0796  0.000003 -0.0000    1.0796   
    34. B(H  32,C   9)                1.0794 -0.000008  0.0000    1.0794   
    35. B(H  33,C   8)                1.0799  0.000004 -0.0000    1.0799   
    36. B(H  34,C   7)                1.0811  0.000009 -0.0000    1.0811   
    37. B(C  35,P   0)                1.7545 -0.000020  0.0000    1.7545   
    38. B(C  36,C  35)                1.4234 -0.000014  0.0000    1.4234   
    39. B(C  37,C  36)                1.4008 -0.000058  0.0001    1.4008   
    40. B(C  38,C  37)                1.3919  0.000046 -0.0000    1.3918   
    41. B(C  39,C  38)                1.3858 -0.000037  0.0000    1.3859   
    42. B(C  39,H  19)                1.0718 -0.000002  0.0000    1.0718   
    43. B(C  40,C  35)                1.4215 -0.000045  0.0000    1.4216   
    44. B(C  41,C  40)                1.4019  0.000004 -0.0000    1.4019   
    45. B(C  42,C  41)                1.3910  0.000010 -0.0000    1.3910   
    46. B(C  43,C  42)                1.3852  0.000009 -0.0000    1.3852   
    47. B(N  44,C  39)                1.3459  0.000057 -0.0000    1.3458   
    48. B(N  44,C  36)                1.3660 -0.000029  0.0000    1.3660   
    49. B(N  45,C  43)                1.3444 -0.000002  0.0000    1.3444   
    50. B(N  45,C  40)                1.3695 -0.000048  0.0001    1.3695   
    51. B(B  46,N  45)                1.5424  0.000079 -0.0001    1.5422   
    52. B(B  46,N  44)                1.5401 -0.000027  0.0000    1.5402   
    53. B(F  47,B  46)                1.3931 -0.000018  0.0000    1.3931   
    54. B(F  48,B  46)                1.3763 -0.000001  0.0000    1.3763   
    55. B(H  49,C  42)                1.0725  0.000002 -0.0000    1.0725   
    56. B(H  50,C  43)                1.0719 -0.000001  0.0000    1.0719   
    57. B(H  51,C  41)                1.0737  0.000008 -0.0000    1.0737   
    58. B(H  52,C  37)                1.0754  0.000009 -0.0000    1.0754   
    59. B(H  53,C  38)                1.0725  0.000007 -0.0000    1.0725   
    60. A(C   4,P   0,C  12)          109.37  0.000032   -0.01    109.36   
    61. A(C  15,P   0,C  35)          111.80  0.000001    0.00    111.80   
    62. A(C   4,P   0,C  35)          112.26 -0.000024    0.01    112.27   
    63. A(C   4,P   0,C  15)          102.31 -0.000012   -0.00    102.31   
    64. A(C  12,P   0,C  15)          108.24  0.000055   -0.02    108.22   
    65. A(C  12,P   0,C  35)          112.34 -0.000045    0.01    112.35   
    66. A(C   5,C   1,H  20)          119.97  0.000013   -0.00    119.96   
    67. A(C   2,C   1,C   5)          120.21  0.000002   -0.00    120.21   
    68. A(C   2,C   1,H  20)          119.83 -0.000016    0.00    119.83   
    69. A(C   3,C   2,H  21)          119.92  0.000020   -0.00    119.92   
    70. A(C   1,C   2,C   3)          119.92 -0.000015    0.00    119.92   
    71. A(C   1,C   2,H  21)          120.16 -0.000004    0.00    120.16   
    72. A(C   2,C   3,C   4)          119.80  0.000024   -0.00    119.80   
    73. A(C   4,C   3,H  24)          119.67  0.000012   -0.00    119.67   
    74. A(C   2,C   3,H  24)          120.53 -0.000036    0.01    120.53   
    75. A(P   0,C   4,C   3)          117.47  0.000068   -0.01    117.46   
    76. A(P   0,C   4,C   6)          121.90 -0.000052    0.01    121.90   
    77. A(C   3,C   4,C   6)          120.25 -0.000016    0.00    120.25   
    78. A(C   1,C   5,C   6)          120.29  0.000005   -0.00    120.29   
    79. A(C   6,C   5,H  22)          119.62  0.000004   -0.00    119.62   
    80. A(C   1,C   5,H  22)          120.09 -0.000009    0.00    120.09   
    81. A(C   4,C   6,H  23)          119.97 -0.000009    0.00    119.97   
    82. A(C   5,C   6,H  23)          120.55  0.000008   -0.00    120.55   
    83. A(C   4,C   6,C   5)          119.47 -0.000000    0.00    119.47   
    84. A(C  12,C   7,H  34)          120.18 -0.000041    0.01    120.18   
    85. A(C   8,C   7,H  34)          120.22  0.000004   -0.00    120.21   
    86. A(C   8,C   7,C  12)          119.60  0.000037   -0.01    119.60   
    87. A(C   7,C   8,H  33)          119.64 -0.000030    0.00    119.64   
    88. A(C   9,C   8,H  33)          120.03  0.000015   -0.00    120.02   
    89. A(C   7,C   8,C   9)          120.34  0.000015   -0.00    120.33   
    90. A(C  10,C   9,H  32)          119.92  0.000015   -0.00    119.92   
    91. A(C   8,C   9,H  32)          119.94  0.000030   -0.00    119.93   
    92. A(C   8,C   9,C  10)          120.14 -0.000045    0.01    120.14   
    93. A(C   9,C  10,H  31)          120.10 -0.000014    0.00    120.11   
    94. A(C  11,C  10,H  31)          119.98 -0.000011    0.00    119.98   
    95. A(C   9,C  10,C  11)          119.91  0.000024   -0.00    119.91   
    96. A(C  10,C  11,C  12)          120.01  0.000023   -0.00    120.00   
    97. A(C  10,C  11,H  30)          120.84  0.000015   -0.00    120.84   
    98. A(C  12,C  11,H  30)          119.15 -0.000039    0.01    119.16   
    99. A(P   0,C  12,C   7)          123.81  0.000101   -0.01    123.80   
   100. A(C   7,C  12,C  11)          119.96 -0.000055    0.01    119.96   
   101. A(P   0,C  12,C  11)          115.74 -0.000047    0.01    115.74   
   102. A(C  14,C  13,H  26)          119.70 -0.000021    0.00    119.70   
   103. A(C  14,C  13,C  16)          120.20  0.000007   -0.00    120.20   
   104. A(C  16,C  13,H  26)          120.10  0.000014   -0.00    120.10   
   105. A(C  13,C  14,C  15)          119.41 -0.000016    0.00    119.41   
   106. A(C  15,C  14,H  25)          120.20  0.000024   -0.00    120.19   
   107. A(C  13,C  14,H  25)          120.39 -0.000008    0.00    120.39   
   108. A(C  14,C  15,C  18)          120.46  0.000007   -0.00    120.46   
   109. A(P   0,C  15,C  18)          116.43 -0.000036    0.01    116.43   
   110. A(P   0,C  15,C  14)          122.95  0.000028   -0.00    122.95   
   111. A(C  17,C  16,H  27)          119.87 -0.000034    0.01    119.88   
   112. A(C  13,C  16,H  27)          119.84  0.000022   -0.00    119.84   
   113. A(C  13,C  16,C  17)          120.28  0.000012   -0.00    120.28   
   114. A(C  16,C  17,C  18)          119.93 -0.000013    0.00    119.93   
   115. A(C  18,C  17,H  28)          119.93 -0.000027    0.00    119.93   
   116. A(C  16,C  17,H  28)          120.14  0.000040   -0.01    120.13   
   117. A(C  15,C  18,C  17)          119.69  0.000003   -0.00    119.69   
   118. A(C  15,C  18,H  29)          119.35  0.000033   -0.01    119.34   
   119. A(C  17,C  18,H  29)          120.94 -0.000036    0.01    120.95   
   120. A(P   0,C  35,C  36)          116.62 -0.000131    0.01    116.63   
   121. A(C  36,C  35,C  40)          119.12  0.000034   -0.00    119.12   
   122. A(P   0,C  35,C  40)          123.67  0.000096   -0.01    123.65   
   123. A(C  35,C  36,C  37)          130.83 -0.000062    0.01    130.83   
   124. A(C  37,C  36,N  44)          108.43  0.000079   -0.01    108.42   
   125. A(C  35,C  36,N  44)          120.71 -0.000016    0.00    120.71   
   126. A(C  36,C  37,C  38)          106.72 -0.000047    0.01    106.73   
   127. A(C  38,C  37,H  52)          127.47  0.000067   -0.01    127.46   
   128. A(C  36,C  37,H  52)          125.76 -0.000021    0.00    125.76   
   129. A(C  39,C  38,H  53)          126.20 -0.000013    0.00    126.21   
   130. A(C  37,C  38,H  53)          126.91 -0.000003    0.00    126.91   
   131. A(C  37,C  38,C  39)          106.88  0.000016   -0.00    106.88   
   132. A(C  38,C  39,N  44)          109.69  0.000006   -0.00    109.69   
   133. A(H  19,C  39,N  44)          120.42 -0.000037    0.01    120.42   
   134. A(H  19,C  39,C  38)          129.89  0.000030   -0.00    129.88   
   135. A(C  41,C  40,N  45)          108.15  0.000036   -0.01    108.14   
   136. A(C  35,C  40,N  45)          119.04 -0.000026    0.01    119.05   
   137. A(C  35,C  40,C  41)          132.75 -0.000009   -0.00    132.75   
   138. A(C  40,C  41,H  51)          126.62  0.000060   -0.01    126.61   
   139. A(C  42,C  41,H  51)          126.49 -0.000031    0.01    126.50   
   140. A(C  40,C  41,C  42)          106.84 -0.000030    0.01    106.85   
   141. A(C  43,C  42,H  49)          126.28  0.000004   -0.00    126.28   
   142. A(C  41,C  42,H  49)          126.78 -0.000007    0.00    126.78   
   143. A(C  41,C  42,C  43)          106.94  0.000003   -0.00    106.94   
   144. A(N  45,C  43,H  50)          120.41 -0.000010    0.00    120.41   
   145. A(C  42,C  43,H  50)          129.91  0.000010   -0.00    129.91   
   146. A(C  42,C  43,N  45)          109.68 -0.000000    0.00    109.68   
   147. A(C  39,N  44,B  46)          128.49  0.000039   -0.01    128.48   
   148. A(C  36,N  44,B  46)          122.93  0.000012    0.01    122.93   
   149. A(C  36,N  44,C  39)          108.26 -0.000055    0.01    108.27   
   150. A(C  43,N  45,B  46)          126.99 -0.000003   -0.00    126.99   
   151. A(C  40,N  45,B  46)          124.43  0.000010    0.00    124.44   
   152. A(C  40,N  45,C  43)          108.38 -0.000009    0.00    108.38   
   153. A(F  47,B  46,F  48)          109.80  0.000008   -0.00    109.80   
   154. A(N  45,B  46,F  48)          110.80 -0.000062    0.01    110.81   
   155. A(N  44,B  46,F  48)          111.15  0.000058   -0.01    111.14   
   156. A(N  45,B  46,F  47)          109.34  0.000004   -0.00    109.33   
   157. A(N  44,B  46,F  47)          109.17  0.000022   -0.01    109.16   
   158. A(N  44,B  46,N  45)          106.51 -0.000032    0.01    106.52   
   159. D(H  21,C   2,C   1,H  20)      0.40 -0.000019    0.04      0.44   
   160. D(H  21,C   2,C   1,C   5)   -178.94  0.000004   -0.01   -178.95   
   161. D(C   3,C   2,C   1,C   5)      0.78  0.000014   -0.03      0.75   
   162. D(C   3,C   2,C   1,H  20)   -179.88 -0.000008    0.02   -179.86   
   163. D(C   4,C   3,C   2,H  21)   -179.41 -0.000001    0.00   -179.41   
   164. D(H  24,C   3,C   2,C   1)   -179.15  0.000001   -0.00   -179.15   
   165. D(H  24,C   3,C   2,H  21)      0.58  0.000012   -0.02      0.55   
   166. D(C   4,C   3,C   2,C   1)      0.86 -0.000012    0.03      0.89   
[...]

----------------------------
CARTESIAN COORDINATES (A.U.)
----------------------------
  NO LB    ZA    FRAG    MASS        X           Y           Z
   0 P  15.0000    0    30.974  -12.022463   20.445785    2.705781
   1 C   6.0000    0    12.011  -14.594289   26.421195    8.396386
   2 C   6.0000    0    12.011  -14.305982   27.023752    5.863230
   3 C   6.0000    0    12.011  -13.585574   25.179931    4.159051
   4 C   6.0000    0    12.011  -13.186029   22.712705    4.990824
   5 C   6.0000    0    12.011  -14.133851   23.981429    9.231373
   6 C   6.0000    0    12.011  -13.410132   22.123374    7.540220
   7 C   6.0000    0    12.011  -16.411950   21.635664   -0.131779
   8 C   6.0000    0    12.011  -17.930991   21.347953   -2.240340
   9 C   6.0000    0    12.011  -17.126653   19.889678   -4.260328
  10 C   6.0000    0    12.011  -14.798232   18.686032   -4.171144
  11 C   6.0000    0    12.011  -13.275991   18.952233   -2.069636
  12 C   6.0000    0    12.011  -14.056557   20.470829   -0.059695
  13 C   6.0000    0    12.011   -6.243810   24.013812   -0.981969
  14 C   6.0000    0    12.011   -8.572849   22.923153   -0.498945
  15 C   6.0000    0    12.011   -9.004780   21.783109    1.824538
  16 C   6.0000    0    12.011   -4.371660   23.984392    0.846671
  17 C   6.0000    0    12.011   -4.819438   22.874748    3.179361
  18 C   6.0000    0    12.011   -7.137817   21.786043    3.679999
  19 H   1.0000    0     1.008  -16.274805   11.956441    8.598877
  20 H   1.0000    0     1.008  -15.161264   27.862602    9.724157
  21 H   1.0000    0     1.008  -14.634048   28.932352    5.219605
  22 H   1.0000    0     1.008  -14.332991   23.522651   11.208644
  23 H   1.0000    0     1.008  -13.042612   20.222010    8.183064
  24 H   1.0000    0     1.008  -13.329766   25.635593    2.181143
  25 H   1.0000    0     1.008  -10.035725   22.935042   -1.925530
  26 H   1.0000    0     1.008   -5.891805   24.886048   -2.792937
  27 H   1.0000    0     1.008   -2.556977   24.830373    0.455263
  28 H   1.0000    0     1.008   -3.358750   22.858195    4.602615
  29 H   1.0000    0     1.008   -7.514187   20.896226    5.480912
  30 H   1.0000    0     1.008  -11.475058   17.989126   -1.950332
  31 H   1.0000    0     1.008  -14.184602   17.527423   -5.734257
  32 H   1.0000    0     1.008  -18.323055   19.670853   -5.897797
  33 H   1.0000    0     1.008  -19.755677   22.259540   -2.301670
  34 H   1.0000    0     1.008  -17.045384   22.770268    1.444559
  35 C   6.0000    0    12.011  -11.693449   17.411648    4.001228
  36 C   6.0000    0    12.011  -13.843706   16.398258    5.259896
  37 C   6.0000    0    12.011  -16.339817   17.269303    5.395909
  38 C   6.0000    0    12.011  -17.682506   15.502441    6.807769
  39 C   6.0000    0    12.011  -15.984348   13.632502    7.499387
  40 C   6.0000    0    12.011   -9.569575   15.826963    3.560361
  41 C   6.0000    0    12.011   -7.518638   15.991855    1.891694
  42 C   6.0000    0    12.011   -6.081154   13.817923    2.234003
  43 C   6.0000    0    12.011   -7.268991   12.402240    4.087983
  44 N   7.0000    0    14.007  -13.686309   14.168334    6.550753
  45 N   7.0000    0    14.007   -9.371764   13.599207    4.862677
  46 B   5.0000    0    10.810  -11.170790   12.775891    7.002654
  47 F   9.0000    0    18.998  -10.171156   13.527539    9.319151
  48 F   9.0000    0    18.998  -11.509559   10.197262    6.984274
  49 H   1.0000    0     1.008   -4.380662   13.320107    1.249930
  50 H   1.0000    0     1.008   -6.750555   10.616743    4.891756
  51 H   1.0000    0     1.008   -7.163498   17.475266    0.553697
  52 H   1.0000    0     1.008  -17.062645   18.946715    4.504974
  53 H   1.0000    0     1.008  -19.654427   15.560158    7.272375

      -----------------------------------------------------------      
     |                   =====================                   |     
     |                           x T B                           |     
     |                   =====================                   |     
     |                         S. Grimme                         |     
     |          Mulliken Center for Theoretical Chemistry        |     
     |                    University of Bonn                     |     
      -----------------------------------------------------------      

   * xtb version 6.7.1 (edcfbbe) compiled by 'albert@albert-system' on 2024-07-22

   xtb is free software: you can redistribute it and/or modify it under
   the terms of the GNU Lesser General Public License as published by
   the Free Software Foundation, either version 3 of the License, or
   (at your option) any later version.
   
   xtb is distributed in the hope that it will be useful,
   but WITHOUT ANY WARRANTY; without even the implied warranty of
   MERCHANTABILITY or FITNESS FOR A PARTICULAR PURPOSE.  See the
   GNU Lesser General Public License for more details.
   
   Cite this work as:
   * C. Bannwarth, E. Caldeweyher, S. Ehlert, A. Hansen, P. Pracht,
     J. Seibert, S. Spicher, S. Grimme, WIREs Comput. Mol. Sci., 2020, 11,
     e01493. DOI: 10.1002/wcms.1493
   
   for GFN2-xTB:
   * C. Bannwarth, S. Ehlert and S. Grimme., J. Chem. Theory Comput., 2019,
     15, 1652-1671. DOI: 10.1021/acs.jctc.8b01176
   for GFN1-xTB:
   * S. Grimme, C. Bannwarth, P. Shushkov, J. Chem. Theory Comput., 2017,
     13, 1989-2009. DOI: 10.1021/acs.jctc.7b00118
   for GFN0-xTB:
   * P. Pracht, E. Caldeweyher, S. Ehlert, S. Grimme, ChemRxiv, 2019, preprint.
     DOI: 10.26434/chemrxiv.8326202.v1
   for GFN-FF:
   * S. Spicher and S. Grimme, Angew. Chem. Int. Ed., 2020, 59, 15665-15673.
     DOI: 10.1002/anie.202004239
   
   for ALPB and GBSA implicit solvation:
   * S. Ehlert, M. Stahn, S. Spicher, S. Grimme, J. Chem. Theory Comput.,
     2021, 17, 4250-4261. DOI: 10.1021/acs.jctc.1c00471
   
   for ddCOSMO and CPCM-X implicit solvation:
   * M. Stahn, S. Ehlert, S. Grimme, J. Phys. Chem. A,
     2023, XX, XXXX-XXXX. DOI: 10.1021/acs.jpca.3c04382
   
   for DFT-D4:
   * E. Caldeweyher, C. Bannwarth and S. Grimme, J. Chem. Phys., 2017,
     147, 034112. DOI: 10.1063/1.4993215
   * E. Caldeweyher, S. Ehlert, A. Hansen, H. Neugebauer, S. Spicher,
     C. Bannwarth and S. Grimme, J. Chem. Phys., 2019, 150, 154122.
     DOI: 10.1063/1.5090222
   * E. Caldeweyher, J.-M. Mewes, S. Ehlert and S. Grimme, Phys. Chem. Chem. Phys.
     2020, 22, 8499-8512. DOI: 10.1039/D0CP00502A
   
   for sTDA-xTB:
   * S. Grimme and C. Bannwarth, J. Chem. Phys., 2016, 145, 054103.
     DOI: 10.1063/1.4959605
   
   in the mass-spec context:
   * V. Asgeirsson, C. Bauer and S. Grimme, Chem. Sci., 2017, 8, 4879.
     DOI: 10.1039/c7sc00601b
   * J. Koopman and S. Grimme, ACS Omega 2019, 4, 12, 15120-15133.
     DOI: 10.1021/acsomega.9b02011
   
   for metadynamics refer to:
   * S. Grimme, J. Chem. Theory Comput., 2019, 155, 2847-2862
     DOI: 10.1021/acs.jctc.9b00143
   
   for SPH calculations refer to:
   * S. Spicher and S. Grimme, J. Chem. Theory Comput., 2021, 17, 1701-1714
     DOI: 10.1021/acs.jctc.0c01306
   
   for ONIOM refer to:
   * C. Plett, A. Katbashev, S. Ehlert, S. Grimme, M. Bursch,
     Phys. Chem. Chem. Phys., 2023, 25, 17860-17868. DOI: 10.1039/D3CP02178E
   
   for DIPRO refer to:
   * J. Kohn, N. Gildemeister, S. Grimme, D. Fazzi, A. Hansen,
     J. Chem. Phys., 2023, just accepted.
   
   for PTB refer to:
   * S. Grimme, M. Mueller, A. Hansen, J. Chem. Phys., 2023, 158, 124111.
     DOI: 10.1063/5.0137838
   
   with help from (in alphabetical order)
   P. Atkinson, C. Bannwarth, F. Bohle, G. Brandenburg, E. Caldeweyher
   M. Checinski, S. Dohm, S. Ehlert, S. Ehrlich, I. Gerasimov, C. Hölzer
   A. Katbashev, J. Kohn, J. Koopman, C. Lavigne, S. Lehtola, F. März, M. Müller,
   F. Musil, H. Neugebauer, J. Pisarek, C. Plett, P. Pracht, F. Pultar,
   J. Seibert, P. Shushkov, S. Spicher, M. Stahn, M. Steiner, T. Strunk,
   J. Stückrath, T. Rose, and J. Unsleber
   
 * started run on 2025/10/30 at 12:28:10.936     
   ID    Z sym.   atoms
    1   15 P      1
    2    6 C      2-19, 36-44
    3    1 H      20-35, 50-54
    4    7 N      45, 46
    5    5 B      47
    6    9 F      48, 49

           -------------------------------------------------
          |                Calculation Setup                |
           -------------------------------------------------

          program call               : otool_xtb TPP_Opt_XTB.xyz --grad -c 0 -u 0 -P 1 --namespace TPP_Opt --input TPP_Opt_XTB.input.tmp --acc 0.200000
          calculation namespace      : TPP_Opt
          coordinate file            : TPP_Opt_XTB.xyz
          omp threads                :                     1


           -------------------------------------------------
          |                 G F N 2 - x T B                 |
           -------------------------------------------------

        Reference                      10.1021/acs.jctc.8b01176
      * Hamiltonian:
        H0-scaling (s, p, d)           1.850000    2.230000    2.230000
        zeta-weighting                 0.500000
      * Dispersion:
        s8                             2.700000
        a1                             0.520000
        a2                             5.000000
        s9                             5.000000
      * Repulsion:
        kExp                           1.500000    1.000000
        rExp                           1.000000
      * Coulomb:
        alpha                          2.000000
        third order                    shell-resolved
        anisotropic                    true
        a3                             3.000000
        a5                             4.000000
        cn-shift                       1.200000
        cn-exp                         4.000000
        max-rad                        5.000000

q/qsh data taken from xtbrestart
CAMM data taken from xtbrestart

          ...................................................
          :                      SETUP                      :
          :.................................................:
          :  # basis functions                 159          :
          :  # atomic orbitals                 158          :
          :  # shells                           88          :
          :  # electrons                       161          :
          :  max. iterations                   250          :
          :  Hamiltonian                  GFN2-xTB          :
          :  restarted?                       true          :
          :  GBSA solvation                  false          :
          :  PC potential                    false          :
          :  electronic temp.          300.0000000     K    :
          :  accuracy                    0.2000000          :
          :  -> integral cutoff          0.3198970E+02      :
          :  -> integral neglect         0.2000000E-08      :
          :  -> SCF convergence          0.2000000E-06 Eh   :
          :  -> wf. convergence          0.2000000E-04 e    :
          :  Broyden damping             0.4000000          :
          :  net charge                          0          :
          :  unpaired electrons                  0          :
          ...................................................

 iter      E             dE          RMSdq      gap      omega  full diag
   1    -89.1205956 -0.891206E+02  0.602E-03    0.78       0.0  T
   2    -89.1205957 -0.546534E-08  0.351E-03    0.78       3.9  T
   3    -89.1205956  0.548227E-07  0.905E-04    0.78      15.0  T
   4    -89.1205957 -0.601476E-07  0.151E-04    0.78      90.2  T
   5    -89.1205957 -0.915477E-09  0.768E-05    0.78     177.3  T

   *** convergence criteria satisfied after 5 iterations ***

         #    Occupation            Energy/Eh            Energy/eV
      -------------------------------------------------------------
         1        2.0000           -0.7300762             -19.8664
       ...           ...                  ...                  ...
        75        2.0000           -0.4112052             -11.1895
        76        2.0000           -0.4084323             -11.1140
        77        2.0000           -0.3951987             -10.7539
        78        2.0000           -0.3821507             -10.3988
        79        2.0000           -0.3808043             -10.3622
        80        2.0000           -0.3585268              -9.7560
        81        1.0000           -0.3095235              -8.4226 (HOMO)
        82        0.0000           -0.2809302              -7.6445 (LUMO)
        83                         -0.2703968              -7.3579
        84                         -0.2652955              -7.2191
        85                         -0.2571495              -6.9974
        86                         -0.2551467              -6.9429
       ...                                ...                  ...
       158                          1.0008114              27.2335
      -------------------------------------------------------------
                  HL-Gap            0.0285933 Eh            0.7781 eV
             Fermi-level           -0.3146260 Eh           -8.5614 eV

 SCC (total)                   0 d,  0 h,  0 min,  0.074 sec
 SCC setup                      ...        0 min,  0.000 sec (  0.495%)
 Dispersion                     ...        0 min,  0.001 sec (  1.040%)
 classical contributions        ...        0 min,  0.000 sec (  0.136%)
 integral evaluation            ...        0 min,  0.015 sec ( 20.425%)
 iterations                     ...        0 min,  0.015 sec ( 19.945%)
 molecular gradient             ...        0 min,  0.042 sec ( 56.466%)
 printout                       ...        0 min,  0.001 sec (  1.465%)

         :::::::::::::::::::::::::::::::::::::::::::::::::::::
         ::                     SUMMARY                     ::
         :::::::::::::::::::::::::::::::::::::::::::::::::::::
         :: total energy             -87.684719166344 Eh    ::
         :: gradient norm              0.000393747661 Eh/a0 ::
         :: HOMO-LUMO gap              0.778063388782 eV    ::
         ::.................................................::
         :: SCC energy               -89.118098784427 Eh    ::
         :: -> isotropic ES            0.105326448256 Eh    ::
         :: -> anisotropic ES         -0.003032685619 Eh    ::
         :: -> anisotropic XC          0.040625427892 Eh    ::
         :: -> dispersion             -0.080116353221 Eh    ::
         :: repulsion energy           1.433379618084 Eh    ::
         :: add. restraining           0.000000000000 Eh    ::
         :: total charge              -0.000000000005 e     ::
         :::::::::::::::::::::::::::::::::::::::::::::::::::::


Property printout bound to 'properties.out'

           -------------------------------------------------
          | TOTAL ENERGY              -87.684719166344 Eh   |
          | GRADIENT NORM               0.000393747661 Eh/α |
          | HOMO-LUMO GAP               0.778063388782 eV   |
           -------------------------------------------------

------------------------------------------------------------------------
 * finished run on 2025/10/30 at 12:28:11.033     
------------------------------------------------------------------------
 total:
 * wall-time:     0 d,  0 h,  0 min,  0.096 sec
 *  cpu-time:     0 d,  0 h,  0 min,  0.095 sec
 * ratio c/w:     0.992 speedup
 SCF:
 * wall-time:     0 d,  0 h,  0 min,  0.075 sec
 *  cpu-time:     0 d,  0 h,  0 min,  0.074 sec
 * ratio c/w:     0.990 speedup


-------------------------   --------------------
FINAL SINGLE POINT ENERGY       -87.684719166340
-------------------------   --------------------


-------------
DIPOLE MOMENT
-------------
                                X             Y             Z
Total Dipole Moment    :     -0.44800       4.61400      -2.58700
                        -----------------------------------------
Magnitude (a.u.)       :      5.30870
Magnitude (Debye)      :     13.49364

                                *** OPTIMIZATION RUN DONE ***


--------------------------------
SUGGESTED CITATIONS FOR THIS RUN
--------------------------------

Below you find a list of papers that are relevant to this ORCA run
We neither can nor want to force you to cite these papers, but we appreciate if you do
You receive ORCA, which is the product of decades of hard work by many enthusiastic individuals, for free
The only thing we kindly ask in return is that you cite our papers,
We deeply appreciate it, if you show your appreciation for ORCA by not just citing the generic ORCA reference.

Please note that relegating all ORCA citations to the supporting information does *not* help us.
SI sections are not indexed - citations you put there will not count into any citation statistics
But we need these citations in order to attract the funding resources that allow us to do what we are doing

Therefore, if you are a happy ORCA user, please consider citing a few of the papers listed below in the main body of your paper

In addition to the list printed below, the program has created the file TPP_Opt.bibtex that contains the list in bibtex format
You can import this file easily into all common literature databanks and citation aid programs


List of essential papers. We consider these as the minimum necessary citations

  1. Bannwarth, C.; Ehlert, S.; Grimme, S.
     GFN2-xTB—An Accurate and Broadly Parametrized Self-Consistent Tight-Binding Quantum Chemical Method with Multipole Electrostatics and Density-Dependent Dispersion Contributions
     J. Chem. Theory Comput. 2019 15(3), 1652-1671
     doi.org/10.1021/acs.jctc.8b01176
  2. Neese, F.
     Software update: the ORCA program system, version 6.0
     WIRES Comput. Molec. Sci. 2025 15(1), e70019
     doi.org/10.1002/wcms.7019

List of papers to cite with high priority. The work reported in these papers was absolutely
necessary for this run to complete.
Our perspective: the developers of density functionals and basis sets usually get cited in chemistry papers
Good! But without the algorithms to do something with them, the functionals or basis sets would not do anything.
Hence, in our opinion, the algorithm design and method developments papers are equally worthy of getting cited

  1. Bannwarth, C.; Caldeweyher, E.; Ehlert, S.; Hansen, A.; Pracht, P.; Seibert, J.; Spicher, S.; Grimme, S.
     Extended tight-binding quantum chemistry methods
     WIRES Comput. Molec. Sci. 2020 11(2), e1493
     doi.org/10.1002/wcms.1493

List of suggested additional citations. These are papers that are important in the 'surrounding' of 
of this run, or papers that preceded the highly important papers. If you like your results we are grateful for a citation.

  1. Neese, F.
     The ORCA program system
     WIRES Comput. Molec. Sci. 2012 2(1), 73-78
     doi.org/10.1002/wcms.81
  2. Neese, F.
     Software update: the ORCA program system, version 4.0
     WIRES Comput. Molec. Sci. 2018 8(1), 1-6
     doi.org/10.1002/wcms.1327
  3. Neese, F.; Wennmohs, F.; Becker, U.; Riplinger, C.
     The ORCA quantum chemistry program package
     J. Chem. Phys. 2020 152(22), 224108
     doi.org/10.1063/5.0004608
  4. Neese, F.
     Software update: The ORCA program system—Version 5.0
     WIRES Comput. Molec. Sci. 2022 12(1), e1606
     doi.org/10.1002/wcms.1606

List of optional additional citations

  1. Neese, F.
     Approximate second-order SCF convergence for spin unrestricted wavefunctions
     Chem. Phys. Lett. 2000 325(1-3), 93-98
     doi.org/10.1016/s0009-2614(00)00662-x

Timings for individual modules:

Sum of individual times          ...        0.292 sec (=   0.005 min)
Geometry relaxation              ...        0.042 sec (=   0.001 min)  14.4 %
XTB module                       ...        0.250 sec (=   0.004 min)  85.6 %
                             ****ORCA TERMINATED NORMALLY****
TOTAL RUN TIME: 0 days 0 hours 0 minutes 0 seconds 371 msec
