
                                 *****************
                                 * O   R   C   A *
                                 *****************

                                            #,                                       
                                            ###                                      
                                            ####                                     
                                            #####                                    
                                            ######                                   
                                           ########,                                 
                                     ,,################,,,,,                         
                               ,,#################################,,                 
                          ,,##########################################,,             
                       ,#########################################, ''#####,          
                    ,#############################################,,   '####,        
                  ,##################################################,,,,####,       
                ,###########''''           ''''###############################       
              ,#####''   ,,,,##########,,,,          '''####'''          '####       
            ,##' ,,,,###########################,,,                        '##       
           ' ,,###''''                  '''############,,,                           
         ,,##''                                '''############,,,,        ,,,,,,###''
      ,#''                                            '''#######################'''  
     '                                                          ''''####''''         
             ,#######,   #######,   ,#######,      ##                                
            ,#'     '#,  ##    ##  ,#'     '#,    #''#        ,####,    ,#,          
            ##       ##  ##   ,#'  ##            #'  '#       #'       ,# #          
            ##       ##  #######   ##           ,######,      #####,      #          
            '#,     ,#'  ##    ##  '#,     ,#' ,#      #,     #,   #      #          
             '#######'   ##     ##  '#######'  #'      '#     '####' #    #          



                #########################################################
                #                        -***-                          #
                #          Department of theory and spectroscopy        #
                #                                                       #
                #                      Frank Neese                      #
                #                                                       #
                #     Directorship, Architecture, Infrastructure        #
                #                    SHARK, DRIVERS                     #
                #        Core code/Algorithms in most modules           #
                #                                                       #
                #        Max Planck Institute fuer Kohlenforschung      #
                #                Kaiser Wilhelm Platz 1                 #
                #                 D-45470 Muelheim/Ruhr                 #
                #                      Germany                          #
                #                                                       #
                #                  All rights reserved                  #
                #                        -***-                          #
                #########################################################


                         Program Version 6.1.0  -  RELEASE   -
                                (GIT: $679e74b$)
                          ($2025-06-10 18:02:51 +0200$)


 With contributions from (in alphabetic order):
[Max-Planck-Institut fuer Kohlenforschung]                               
  Daniel Aravena         : Magnetic Suceptibility                        
  Michael Atanasov       : Ab Initio Ligand Field Theory (pilot matlab implementation)
  Alexander A. Auer      : GIAO ZORA, VPT2 properties, NMR spectrum      
  Ute Becker             : All parallelization in ORCA, NUMFREQ, NUMCALC 
  Giovanni Bistoni       : ED, misc. LED, open-shell LED, HFLD           
  Dmytro Bykov           : pre 5.0 version of the SCF Hessian            
  Marcos Casanova-Páez   : Triplet and SCS-CIS(D). UHF-(DLPNO)-IP/EA/STEOM-CCSD. UHF-CVS-IP/STEOM-CCSD   
  Vijay G. Chilkuri      : MRCI spin determinant printing, contributions to CSF-ICE 
  Pauline Colinet        : FMM embedding                                 
  Dipayan Datta          : RHF DLPNO-CCSD density                        
  Achintya Kumar Dutta   : EOM-CC, STEOM-CC                              
  Nicolas Foglia         : Exact transition moments, OPA infrastructure, MCD improvements    
  Dmitry Ganyushin       : Spin-Orbit,Spin-Spin,Magnetic field MRCI      
  Miquel Garcia-Rates    : C-PCM and meta-GGA Hessian, CCSD/C-PCM, Gaussian charge scheme 
  Tiago L. C. Gouveia    : GS-ROHF, GS-ROCIS                             
  Yang Guo               : DLPNO-NEVPT2, F12-NEVPT2, CIM, IAO-localization        
  Andreas Hansen         : Spin unrestricted coupled pair/coupled cluster methods 
  Ingolf Harden          : AUTO-CI MPn and infrastructure                
  Benjamin Helmich-Paris : MC-RPA, TRAH-(SCF,CASSCF), AVAS, COSX integrals, SCF dyn. polar., MC-PDFT, srDFT 
  Lee Huntington         : MR-EOM, pCC                                   
  Robert Izsak           : Overlap fitted RIJCOSX, COSX-SCS-MP3, EOM     
  Riya Kayal             : Wick's Theorem for AUTO-CI, AUTO-CI UHF-CCSDT 
  Emily Kempfer          : AUTO-CI RHF CISDT and CCSDT, approximate NEVPT4
  Christian Kollmar      : KDIIS, OOCD, Brueckner-CCSD(T), CCSD density, CASPT2, CASPT2-K, improved NEVPT2 
  Axel Koslowski         : Symmetry handling                             
  Simone Kossmann        : meta-GGA functionals, TD-DFT gradient, OOMP2, (MP2 Hessian; deprecated post 5.0) 
  Lucas Lang             : DCDCAS, Hyperfine gauge corrections, ICE-SOC+SSC
  Marvin Lechner         : AUTO-CI (C++ implementation), FIC-MRCC        
  Spencer Leger          : CASSCF response                               
  Dagmar Lenk            : GEPOL surface, SMD, ORCA-2-JSON               
  Dimitrios Liakos       : Extrapolation schemes; Compound Job, Property file
  Dimitrios Manganas     : Further ROCIS development; embedding schemes. LFT, Crystal Embedding 
  Dimitrios Pantazis     : SARC Basis sets                               
  Anastasios Papadopoulos: AUTO-CI, single reference methods and gradients 
  Taras Petrenko         : pre 6.0 DFT Hessian and TD-DFT gradient,  ECA, NRVS 
  Petra Pikulova         : Analytic Raman intensities                    
  Peter Pinski           : DLPNO-MP2, DLPNO-MP2 Gradient                 
  Shashank Vittal Rao    : ES-AILFT, MagRelax                            
  Christoph Reimann      : Effective Core Potentials                     
  Marius Retegan         : Local ZFS, SOC                                
  Christoph Riplinger    : Optimizer, TS searches, QM/MM, DLPNO-CCSD(T), (RO)-DLPNO pert. Triples 
  Michael Roemelt        : Original ROCIS implementation, recursive CI coupling coefficients
  Masaaki Saitow         : Open-shell DLPNO-CCSD energy and density      
  Barbara Sandhoefer     : DKH picture change effects                    
  Yorick L. A. Schmerwitz: GMF and freeze-and-release deltaSCF, NEB S-IDPP initial path                    
  Kantharuban Sivalingam : CASSCF convergence/infrastructure, NEVPT2, NEVPT3, NEVPT4(SD), FIC-MRCI and CEPA variants
  Bernardo de Souza      : ESD, SOC TD-DFT                               
  Georgi L. Stoychev     : AutoAux, RI-MP2 NMR, DLPNO-MP2 response, X2C  
  Van Anh Tran           : RI-MP2 g-tensors                              
  Willem Van den Heuvel  : Paramagnetic NMR                              
  Zikuan Wang            : NOTCH, Electric field optimization            
  Frank Wennmohs         : Technical directorship and infrastructure     
  Hang Xu                : AUTO-CI-Response properties                   
                                                                         
[FACCTs GmbH]                                                            
  Markus Bursch, Nicolas Foglia, Miquel Garcia-Rates, Ingolf Harden, Hagen Neugebauer, Anastasios Papadopoulos, 
  Christoph Riplinger, Bernardo de Souza, Georgi L. Stoychev                                                    
                                                                 
  APM, various basis sets, CI-OPT, improved COSX, DLPNO-Multilevel,           
  DOCKER, DRACO, updates on ESD, Fragmentator, GOAT, IRC, LR-CPCM, L-BFGS, MBIS, meta-GGA TD-DFT gradient, ML-optimized integration grids, 
  MM, NACMEs, nearIR, NEB, NEB-TS, NL-DFT gradient (VV10), 2- and 3-layer-ONIOM, interface openCOSMO-RS, QMMM,   
  Crystal-QMMM, RESP, rigid body optimization, SF, symmetry and pop. for TD-DFT, various functionals, SOLVATOR                                   
                                                                         
[Other institutions]                                                     
  V. Asgeirsson          : NEB                                           
  Christoph Bannwarth    : sTDA-DFT, sTD-DFT, PBEh-3c, B97-3c, D3        
  Giovanni Bistoni       : ETS/NOCV, ADLD/ADEX, COVALED                  
  Martin Brehm           : Molecular dynamics                            
  Ronald Cardenas        : ETS/NOCV                                      
  Martina Colucci        : COVALED                                       
  Sebastian Ehlert       : rSCAN, r2SCAN, r2SCAN-3c, D4, dhf basis sets  
  Marvin Friede          : D4 for Fr, Ra, Ac-Lr                          
  Lars Goerigk           : TD-DFT with DH, B97 family of functionals     
  Stefan Grimme          : VdW corrections, initial TS optimization, DFT functionals, gCP, sTDA/sTD-DF 
  Waldemar Hujo          : DFT-NL                                        
  H. Jonsson             : NEB                                           
  Holger Kruse           : gCP                                           
  Marcel Mueller         : wB97X-3c, vDZP basis set                      
  Hagen Neugebauer       : wr2SCAN, Native XTB                           
  Gianluca Regni         : ADLD/ADEX                                     
  Tobias Risthaus        : pre 6.0 range-separated hybrid DFT and stability analysis
  Lukas Wittmann         : regularized MP2, r2SCAN double-hybrids, wr2SCAN        
                                                                         
We gratefully acknowledge several colleagues who have allowed us to      
interface, adapt or use parts of their codes:                            
  Ed Valeev, F. Pavosevic, A. Kumar             : LibInt (2-el integral package), F12 methods 
  Garnet Chan, S. Sharma, J. Yang, R. Olivares  : DMRG                   
  Ulf Ekstrom                                   : XCFun DFT Library      
  Mihaly Kallay                                 : mrcc  (arbitrary order and MRCC methods)
  Frank Weinhold                                : gennbo (NPA and NBO analysis)           
  Simon Mueller                                 : openCOSMO-RS                            
  Christopher J. Cramer and Donald G. Truhlar   : smd solvation model                     
  S Lehtola, MJT Oliveira, MAL Marques          : LibXC Library                           
  Liviu Ungur et al                             : ANISO software                          


 Your calculation uses the libint2 library for the computation of 2-el integrals
 For citations please refer to: http://libint.valeyev.net

 Your ORCA version has been built with support for libXC version: 7.0.0
 For citations please refer to: https://libxc.gitlab.io

 This ORCA versions uses:
   CBLAS   interface :  Fast vector & matrix operations
   LAPACKE interface :  Fast linear algebra routines
   SCALAPACK package :  Parallel linear algebra routines
   Shared memory     :  Shared parallel matrices
   BLAS/LAPACK       :  OpenBLAS 0.3.29  USE64BITINT DYNAMIC_ARCH NO_AFFINITY Haswell SINGLE_THREADED
        Core in use  :  Haswell
   Copyright (c) 2011-2014, The OpenBLAS Project


  ***********************************
  * Starting time: Fri Jan  2 06:01:28 2026
  * Host name:     corine-kengne-Latitude-5491
  * Process ID:    86984
  * Working dir.:  /home/corine-kengne/stage_BODIPY/OPT_GFN2-xTB/TPP_BODIPY
  ***********************************

Your calculation utilizes the semiempirical GFN2-xTB method
Please cite in your paper:
Bannwarth, C.; Ehlert S.; Grimme, S. J. Chem. Theory Comput. 2019, 15, 1652.
   

================================================================================

================================================================================
                                        WARNINGS
                       Please study these warnings very carefully!
================================================================================


WARNING: Geometry Optimization
  ===> : Switching off AutoStart
         For restart on a previous wavefunction, please use MOREAD

WARNING: Found dipole moment calculation with XTB calculation
  ===> : Switching off dipole moment calculation


================================================================================
                                       INPUT FILE
================================================================================
NAME = TPP_Opt.inp
|  1> # ----------------------------------------------------
|  2> # OPTIMISATION DU PROTOTYPE 1 : BODIPY de base
|  3> # ----------------------------------------------------
|  4> ! OPT GFN2-xTB
|  5> 
|  6> # Définition des coordonnées du BODIPY de base
|  7> 
|  8> *xyz 1 1 Bod_xtb_opt.xyz
|  9> 
| 10>    P          -6.28611948891859     10.93314412133236      1.51967969849319
| 11>   C          -7.68619242244252     13.92278944851181      4.67771429325804
| 12>   C          -7.30770459603206     14.35454203069918      3.41473925965805
| 13>   C          -6.87701763928332     13.44044933297742      2.47160873942070
| 14>   C          -6.83754655779638     12.08260228841010      2.79490261824241
| 15>   C          -7.62811823891723     12.57675971336923      5.00269494482226
| 16>   C          -7.20441974691698     11.64994717115242      4.06583935189945
| 17>   C          -8.38660569153797     11.79341475978665     -0.11101684996888
| 18>   C          -9.25277470668873     11.65759951205120     -1.18197531307739
| 19>   C          -9.20221432048631     10.52585353386994     -1.98007153462831
| 20>   C          -8.28811308898418      9.51916066424503     -1.70780162249663
| 21>   C          -7.41918268379478      9.64132855078854     -0.63951398819283
| 22>   C          -7.46799293105286     10.78430258464747      0.15877680933610
| 23>   C          -3.19065330517426     11.71138304297219     -0.99541394115834
| 24>   C          -4.37313711370965     11.22218985040024     -0.46906331630555
| 25>   C          -4.73935175973278     11.56430942593553      0.83023742329876
| 26>   C          -2.37998058356296     12.54046255431494     -0.23586800929024
| 27>   C          -2.74801111873724     12.88481655632303      1.05657823781027
| 28>   C          -3.92525727991053     12.39977940913938      1.59577150523143
| 29>   H          -8.91264684240239      5.94531013096698      3.36384797155302
| 30>   H          -8.02074855897034     14.63914982042331      5.41152070527840
| 31>   H          -7.34329513326604     15.40402872221188      3.16682743307763
| 32>   H          -7.91129787335968     12.24519111807062      5.98940275615932
| 33>   H          -7.15652782407121     10.60159272337789      4.32123731462349
| 34>   H          -6.55715848298270     13.77344125434397      1.49285949300849
| 35>   H          -5.00990174830211     10.58398268659574     -1.06432326316493
| 36>   H          -2.90412814114995     11.44744943075503     -2.00134749927701
| 37>   H          -1.46073483631367     12.92208996723006     -0.65170920881546
| 38>   H          -2.11679884288421     13.53155906642212      1.64600769289187
| 39>   H          -4.21079508684621     12.66024433093813      2.60560599651722
| 40>   H          -6.71862279400111      8.84765486608953     -0.41609956639088
| 41>   H          -8.25409230373176      8.63478289541714     -2.32468609674076
| 42>   H          -9.88030476953019     10.42493171543082     -2.81287213539852
| 43>   H          -9.96995718397065     12.43616659401523     -1.39047504301761
| 44>   H          -8.43661685973574     12.66985122617322      0.51911433212499
| 45>   C          -6.14471627064385      9.25530564396318      2.19732586985356
| 46>   C          -7.35803543399646      8.60848539841227      2.46032382791766
| 47>   C          -8.69186364884753      9.09919106787854      2.48171057925063
| 48>   C          -9.49578213898602      8.05657685218254      2.87453907622910
| 49>   C          -8.65625604217016      6.94544340284132      3.07076319628237
| 50>   C          -4.93042256389849      8.60459109819446      2.40984364679150
| 51>   C          -3.57995739569417      9.05392824817422      2.39798949927861
| 52>   C          -2.79890032558709      7.98826530827360      2.76851946942776
| 53>   C          -3.66501888284535      6.90080709899268      2.98585423800836
| 54>   N          -7.39621439862569      7.28309406882333      2.83628254838536
| 55>   N          -4.91881225233447      7.27310296260028      2.78537417186052
| 56>   B          -6.16423842445174      6.33812712514538      2.76484066942418
| 57>   F          -6.14172066431110      5.48620297047843      3.82159144122948
| 58>   F          -6.19142288968859      5.67948417040774      1.55993987202305
| 59>   H          -1.73317986507775      7.96933673882044      2.87594444092184
| 60>   H          -3.42927057096073      5.89318528278998      3.27162086442461
| 61>   H          -3.24484079395326     10.04550372369694      2.17277741727915
| 62>   H          -8.99717383566349     10.10462229651418      2.26034596601783
| 63>   H         -10.55818676206682      8.06917822082205      3.01120555541266
| 64> *
| 65> 
| 66>                          ****END OF INPUT****
================================================================================

                       *****************************
                       * Geometry Optimization Run *
                       *****************************

Geometry optimization settings:
Update method            Update   .... BFGS
Choice of coordinates    CoordSys .... (2022) Redundant Internals
Initial Hessian          InHess   .... Almloef's Model
Max. no of cycles        MaxIter  .... 162

Convergence Tolerances:
Energy Change            TolE     ....  5.0000e-06 Eh
Max. Gradient            TolMAXG  ....  3.0000e-04 Eh/bohr
RMS Gradient             TolRMSG  ....  1.0000e-04 Eh/bohr
Max. Displacement        TolMAXD  ....  4.0000e-03 bohr
RMS Displacement         TolRMSD  ....  2.0000e-03 bohr
Strict Convergence                .... False

------------------------------------------------------------------------------
                        ORCA OPTIMIZATION COORDINATE SETUP
------------------------------------------------------------------------------

The optimization will be done in redundant internal coordinates (2022)
Making redundant internal coordinates   ...  (2022 redundants) done
Evaluating the initial hessian          ...  (Almloef) done
Evaluating the coordinates              ...  done
Calculating the B-matrix                .... done
Calculating the G-matrix                .... done
The number of degrees of freedom        ....  308

    -----------------------------------------------------------------
                    Redundant Internal Coordinates


    -----------------------------------------------------------------
         Definition                    Initial Value    Approx d2E/dq
    -----------------------------------------------------------------
      1. B(C   2,C   1)                  1.3874         0.630884   
      2. B(C   3,C   2)                  1.3822         0.642894   
      3. B(C   4,P   0)                  1.8032         0.460260   
      4. B(C   4,C   3)                  1.3964         0.610364   
      5. B(C   5,C   1)                  1.3859         0.634226   
      6. B(C   6,C   4)                  1.3918         0.620712   
      7. B(C   6,C   5)                  1.3843         0.638090   
      8. B(C   8,C   7)                  1.3841         0.638559   
      9. B(C   9,C   8)                  1.3858         0.634578   
     10. B(C  10,C   9)                  1.3868         0.632245   
     11. B(C  11,C  10)                  1.3825         0.642338   
     12. B(C  12,C  11)                  1.3950         0.613413   
     13. B(C  12,C   7)                  1.3910         0.622452   
     14. B(C  12,P   0)                  1.8086         0.451214   
     15. B(C  14,C  13)                  1.3837         0.639428   
     16. B(C  15,C  14)                  1.3926         0.618852   
     17. B(C  15,P   0)                  1.8073         0.453440   
     18. B(C  16,C  13)                  1.3862         0.633645   
     19. B(C  17,C  16)                  1.3872         0.631156   
     20. B(C  18,C  17)                  1.3827         0.641745   
     21. B(C  18,C  15)                  1.3953         0.612797   
     22. B(H  20,C   1)                  1.0787         0.375377   
     23. B(H  21,C   2)                  1.0790         0.375008   
     24. B(H  22,C   5)                  1.0788         0.375282   
     25. B(H  23,C   6)                  1.0801         0.373467   
     26. B(H  24,C   3)                  1.0822         0.370576   
     27. B(H  25,C  14)                  1.0803         0.373123   
     28. B(H  26,C  13)                  1.0787         0.375321   
     29. B(H  27,C  16)                  1.0787         0.375374   
     30. B(H  28,C  17)                  1.0789         0.375019   
     31. B(H  29,C  18)                  1.0813         0.371839   
     32. B(H  30,C  11)                  1.0820         0.370908   
     33. B(H  31,C  10)                  1.0788         0.375213   
     34. B(H  32,C   9)                  1.0787         0.375392   
     35. B(H  33,C   8)                  1.0789         0.375110   
     36. B(H  34,C   7)                  1.0806         0.372745   
     37. B(C  35,P   0)                  1.8150         0.440678   
     38. B(C  36,C  35)                  1.3999         0.602507   
     39. B(C  37,C  36)                  1.4214         0.556749   
     40. B(C  38,C  37)                  1.3739         0.662827   
     41. B(C  39,C  38)                  1.4064         0.588293   
     42. B(C  39,H  19)                  1.0733         0.382931   
     43. B(C  40,C  35)                  1.3940         0.615791   
     44. B(C  41,C  40)                  1.4233         0.552841   
     45. B(C  42,C  41)                  1.3722         0.666975   
     46. B(C  43,C  42)                  1.4071         0.586731   
     47. B(N  44,C  39)                  1.3254         0.709472   
     48. B(N  44,C  36)                  1.3782         0.584365   
     49. B(N  45,C  43)                  1.3232         0.715302   
     50. B(N  45,C  40)                  1.3835         0.573161   
     51. B(B  46,N  45)                  1.5575         0.350363   
     52. B(B  46,N  44)                  1.5543         0.354464   
     53. B(F  47,B  46)                  1.3576         0.678453   
     54. B(F  48,B  46)                  1.3734         0.640038   
     55. B(H  49,C  42)                  1.0713         0.385724   
     56. B(H  50,C  43)                  1.0736         0.382511   
     57. B(H  51,C  41)                  1.0706         0.386660   
     58. B(H  52,C  37)                  1.0738         0.382140   
     59. B(H  53,C  38)                  1.0712         0.385802   
     60. A(C   4,P   0,C  12)          112.6292         0.442354   
     61. A(C  15,P   0,C  35)          113.4901         0.439283   
     62. A(C   4,P   0,C  35)          110.4299         0.440469   
     63. A(C   4,P   0,C  15)          107.9923         0.442747   
     64. A(C  12,P   0,C  15)          107.5160         0.441162   
     65. A(C  12,P   0,C  35)          104.8191         0.438893   
     66. A(C   5,C   1,H  20)          119.8986         0.356774   
     67. A(C   2,C   1,C   5)          120.2835         0.437211   
     68. A(C   2,C   1,H  20)          119.8166         0.356454   
     69. A(C   3,C   2,H  21)          119.7856         0.357538   
     70. A(C   1,C   2,C   3)          120.0233         0.438283   
     71. A(C   1,C   2,H  21)          120.1904         0.356394   
     72. A(C   2,C   3,C   4)          119.5979         0.435678   
     73. A(C   4,C   3,H  24)          120.0168         0.353687   
     74. A(C   2,C   3,H  24)          120.3786         0.356816   
     75. A(P   0,C   4,C   3)          117.6961         0.437732   
     76. A(P   0,C   4,C   6)          121.8868         0.439061   
     77. A(C   3,C   4,C   6)          120.4151         0.432934   
     78. A(C   1,C   5,C   6)          120.2907         0.438108   
     79. A(C   6,C   5,H  22)          119.5772         0.357127   
     80. A(C   1,C   5,H  22)          120.1319         0.356759   
     81. A(C   4,C   6,H  23)          120.3961         0.355164   
     82. A(C   5,C   6,H  23)          120.2255         0.356833   
     83. A(C   4,C   6,C   5)          119.3782         0.436410   
     84. A(C  12,C   7,H  34)          120.3874         0.355216   
     85. A(C   8,C   7,H  34)          120.1214         0.356760   
     86. A(C   8,C   7,C  12)          119.4832         0.436688   
     87. A(C   7,C   8,H  33)          119.6519         0.357144   
     88. A(C   9,C   8,H  33)          120.1530         0.356764   
     89. A(C   7,C   8,C   9)          120.1948         0.438209   
     90. A(C  10,C   9,H  32)          119.8696         0.356587   
     91. A(C   8,C   9,H  32)          119.8756         0.356810   
     92. A(C   8,C   9,C  10)          120.2539         0.437425   
     93. A(C   9,C  10,H  31)          120.2393         0.356558   
     94. A(C  11,C  10,H  31)          119.6362         0.357519   
     95. A(C   9,C  10,C  11)          120.1238         0.438385   
     96. A(C  10,C  11,C  12)          119.5125         0.436002   
     97. A(C  10,C  11,H  30)          120.1137         0.356818   
     98. A(C  12,C  11,H  30)          120.3658         0.354040   
     99. A(P   0,C  12,C   7)          121.1839         0.437713   
    100. A(C   7,C  12,C  11)          120.4309         0.433540   
    101. A(P   0,C  12,C  11)          118.3697         0.436560   
    102. A(C  14,C  13,H  26)          119.6836         0.357260   
    103. A(C  14,C  13,C  16)          120.1857         0.438200   
    104. A(C  16,C  13,H  26)          120.1303         0.356709   
    105. A(C  13,C  14,C  15)          119.5238         0.436338   
    106. A(C  15,C  14,H  25)          120.2791         0.354928   
    107. A(C  13,C  14,H  25)          120.1962         0.356904   
    108. A(C  14,C  15,C  18)          120.3692         0.433010   
    109. A(P   0,C  15,C  18)          119.9456         0.436869   
    110. A(P   0,C  15,C  14)          119.6827         0.437644   
    111. A(C  17,C  16,H  27)          119.8297         0.356480   
    112. A(C  13,C  16,H  27)          119.9173         0.356718   
    113. A(C  13,C  16,C  17)          120.2528         0.437173   
    114. A(C  16,C  17,C  18)          120.1393         0.438175   
    115. A(C  18,C  17,H  28)          119.6914         0.357431   
    116. A(C  16,C  17,H  28)          120.1693         0.356422   
    117. A(C  15,C  18,C  17)          119.5285         0.435850   
    118. A(C  15,C  18,H  29)          120.1705         0.354130   
    119. A(C  17,C  18,H  29)          120.2999         0.356914   
    120. A(P   0,C  35,C  36)          115.4513         0.433306   
    121. A(C  36,C  35,C  40)          120.7095         0.431310   
    122. A(P   0,C  35,C  40)          123.8012         0.435010   
    123. A(C  35,C  36,C  37)          131.0446         0.423589   
    124. A(C  37,C  36,N  44)          107.5717         0.418547   
    125. A(C  35,C  36,N  44)          121.3056         0.424492   
    126. A(C  36,C  37,C  38)          106.9420         0.430893   
    127. A(C  38,C  37,H  52)          127.0926         0.360556   
    128. A(C  36,C  37,H  52)          125.9404         0.350046   
    129. A(C  39,C  38,H  53)          125.6979         0.353893   
    130. A(C  37,C  38,H  53)          127.4348         0.361143   
    131. A(C  37,C  38,C  39)          106.8673         0.435185   
    132. A(C  38,C  39,N  44)          109.9711         0.437662   
    133. A(H  19,C  39,N  44)          120.8513         0.362627   
    134. A(H  19,C  39,C  38)          129.1776         0.353446   
    135. A(C  41,C  40,N  45)          107.3455         0.416584   
    136. A(C  35,C  40,N  45)          119.8653         0.424678   
    137. A(C  35,C  40,C  41)          132.6791         0.424709   
    138. A(C  40,C  41,H  51)          126.2373         0.350324   
    139. A(C  42,C  41,H  51)          126.7193         0.361664   
    140. A(C  40,C  41,C  42)          107.0162         0.430831   
    141. A(C  43,C  42,H  49)          125.6750         0.353722   
    142. A(C  41,C  42,H  49)          127.3753         0.361515   
    143. A(C  41,C  42,C  43)          106.9496         0.435465   
    144. A(N  45,C  43,H  50)          120.8300         0.363066   
    145. A(C  42,C  43,H  50)          129.1466         0.353221   
    146. A(C  42,C  43,N  45)          110.0234         0.438098   
    147. A(C  39,N  44,B  46)          127.3576         0.400735   
    148. A(C  36,N  44,B  46)          123.3791         0.387344   
    149. A(C  36,N  44,C  39)          108.6378         0.434269   
    150. A(C  43,N  45,B  46)          126.2144         0.400492   
    151. A(C  40,N  45,B  46)          124.5740         0.385258   
    152. A(C  40,N  45,C  43)          108.6551         0.433397   
    153. A(F  47,B  46,F  48)          112.4750         0.441784   
    154. A(N  45,B  46,F  48)          108.3778         0.394434   
    155. A(N  44,B  46,F  48)          108.4328         0.395240   
    156. A(N  45,B  46,F  47)          110.6829         0.398491   
    157. A(N  44,B  46,F  47)          111.0321         0.399307   
    158. A(N  44,B  46,N  45)          105.5597         0.357659   
    159. D(H  21,C   2,C   1,H  20)      0.2584         0.027601   
    160. D(H  21,C   2,C   1,C   5)   -179.3326         0.027601   
    161. D(C   3,C   2,C   1,C   5)      0.3423         0.027601   
    162. D(C   3,C   2,C   1,H  20)    179.9333         0.027601   
    163. D(C   4,C   3,C   2,H  21)   -179.7472         0.028734   
    164. D(H  24,C   3,C   2,C   1)   -178.4784         0.028734   
    165. D(H  24,C   3,C   2,H  21)      1.1978         0.028734   
    166. D(C   4,C   3,C   2,C   1)      0.5766         0.028734   
    167. D(C   6,C   4,P   0,C  15)   -130.0246         0.010000   
    168. D(P   0,C   4,C   3,C   2)    179.2846         0.025731   
    169. D(C   6,C   4,P   0,C  12)    111.4058         0.010000   
    170. D(C   3,C   4,P   0,C  12)    -69.1042         0.010000   
    171. D(C   3,C   4,P   0,C  15)     49.4654         0.010000   
    172. D(C   3,C   4,P   0,C  35)    174.0895         0.010000   
    173. D(C   6,C   4,C   3,C   2)     -1.2176         0.025731   
    174. D(P   0,C   4,C   3,H  24)     -1.6570         0.025731   
    175. D(C   6,C   4,C   3,H  24)    177.8409         0.025731   
    176. D(H  22,C   5,C   1,H  20)     -0.3544         0.027914   
    177. D(H  22,C   5,C   1,C   2)    179.2363         0.027914   
    178. D(C   6,C   5,C   1,C   2)     -0.6327         0.027914   
    179. D(C   6,C   5,C   1,H  20)    179.7766         0.027914   
    180. D(H  23,C   6,C   5,H  22)     -0.0675         0.028278   
    181. D(C   4,C   6,C   5,H  22)   -179.8745         0.028278   
    182. D(C   4,C   6,C   5,C   1)     -0.0048         0.028278   
    183. D(H  23,C   6,C   5,C   1)    179.8022         0.028278   
    184. D(H  23,C   6,C   4,P   0)      0.5996         0.026664   
    185. D(H  23,C   6,C   4,C   3)   -178.8768         0.026664   
    186. D(C   5,C   6,C   4,C   3)      0.9298         0.026664   
    187. D(C   5,C   6,C   4,P   0)   -179.5938         0.026664   
    188. D(C   9,C   8,C   7,C  12)     -0.1347         0.028322   
    189. D(C   9,C   8,C   7,H  34)   -179.1161         0.028322   
    190. D(H  33,C   8,C   7,H  34)      0.6873         0.028322   
    191. D(H  33,C   8,C   7,C  12)    179.6687         0.028322   
    192. D(H  32,C   9,C   8,C   7)    179.9441         0.027947   
    193. D(H  32,C   9,C   8,H  33)      0.1417         0.027947   
    194. D(C  10,C   9,C   8,H  33)   -179.5041         0.027947   
    195. D(C  10,C   9,C   8,C   7)      0.2983         0.027947   
    196. D(H  31,C  10,C   9,H  32)     -0.1184         0.027728   
    197. D(H  31,C  10,C   9,C   8)    179.5274         0.027728   
    198. D(C  11,C  10,C   9,H  32)   -179.8159         0.027728   
    199. D(C  11,C  10,C   9,C   8)     -0.1700         0.027728   
    200. D(H  30,C  11,C  10,H  31)     -0.8416         0.028681   
    201. D(H  30,C  11,C  10,C   9)    178.8577         0.028681   
    202. D(C  12,C  11,C  10,H  31)   -179.8179         0.028681   
    203. D(C  12,C  11,C  10,C   9)     -0.1186         0.028681   
    204. D(C   7,C  12,C  11,H  30)   -178.6917         0.026004   
    205. D(C   7,C  12,C  11,C  10)      0.2819         0.026004   
    206. D(P   0,C  12,C  11,H  30)      2.7240         0.026004   
    207. D(C  11,C  12,C   7,H  34)    178.8233         0.026823   
    208. D(C  11,C  12,C   7,C   8)     -0.1553         0.026823   
    209. D(P   0,C  12,C   7,H  34)     -2.6328         0.026823   
    210. D(P   0,C  12,C   7,C   8)    178.3885         0.026823   
    211. D(C  11,C  12,P   0,C  15)     82.8034         0.010000   
    212. D(P   0,C  12,C  11,C  10)   -178.3023         0.026004   
    213. D(C  11,C  12,P   0,C   4)   -158.3486         0.010000   
    214. D(C   7,C  12,P   0,C  35)    143.1759         0.010000   
    215. D(C   7,C  12,P   0,C  15)    -95.7697         0.010000   
    216. D(C   7,C  12,P   0,C   4)     23.0783         0.010000   
    217. D(H  25,C  14,C  13,H  26)     -0.3845         0.028404   
    218. D(H  25,C  14,C  13,C  16)    179.3909         0.028404   
    219. D(C  15,C  14,C  13,H  26)    179.9569         0.028404   
    220. D(C  15,C  14,C  13,C  16)     -0.2677         0.028404   
    221. D(C  14,C  15,P   0,C   4)   -154.1921         0.010000   
    222. D(C  18,C  15,C  14,C  13)      0.3318         0.026495   
    223. D(P   0,C  15,C  14,H  25)      0.0983         0.026495   
    224. D(P   0,C  15,C  14,C  13)    179.7566         0.026495   
    225. D(C  18,C  15,P   0,C  12)    147.0192         0.010000   
    226. D(C  18,C  15,P   0,C   4)     25.2352         0.010000   
    227. D(C  14,C  15,P   0,C  35)     83.0343         0.010000   
    228. D(C  18,C  15,C  14,H  25)   -179.3265         0.026495   
    229. D(C  14,C  15,P   0,C  12)    -32.4080         0.010000   
    230. D(H  27,C  16,C  13,C  14)   -179.7908         0.027859   
    231. D(C  17,C  16,C  13,H  26)    179.8020         0.027859   
    232. D(H  27,C  16,C  13,H  26)     -0.0164         0.027859   
    233. D(C  17,C  16,C  13,C  14)      0.0277         0.027859   
    234. D(H  28,C  17,C  16,H  27)     -0.0799         0.027627   
    235. D(H  28,C  17,C  16,C  13)   -179.8985         0.027627   
    236. D(C  18,C  17,C  16,H  27)    179.9707         0.027627   
    237. D(C  18,C  17,C  16,C  13)      0.1520         0.027627   
    238. D(H  29,C  18,C  17,C  16)    179.5188         0.028624   
    239. D(C  15,C  18,C  17,H  28)    179.9624         0.028624   
    240. D(C  15,C  18,C  17,C  16)     -0.0880         0.028624   
    241. D(H  29,C  18,C  15,C  14)   -179.7615         0.025949   
    242. D(H  29,C  18,C  15,P   0)      0.8152         0.025949   
    243. D(C  17,C  18,C  15,C  14)     -0.1542         0.025949   
    244. D(H  29,C  18,C  17,H  28)     -0.4309         0.028624   
    245. D(C  17,C  18,C  15,P   0)   -179.5775         0.025949   
    246. D(C  40,C  35,P   0,C  12)    128.7903         0.010000   
    247. D(C  40,C  35,P   0,C   4)   -109.6579         0.010000   
    248. D(C  36,C  35,P   0,C  15)   -166.0054         0.010000   
    249. D(C  36,C  35,P   0,C  12)    -48.9764         0.010000   
    250. D(C  36,C  35,P   0,C   4)     72.5754         0.010000   
    251. D(N  44,C  36,C  35,C  40)     -5.0585         0.025037   
    252. D(N  44,C  36,C  35,P   0)    172.7830         0.025037   
    253. D(C  37,C  36,C  35,C  40)    171.3014         0.025037   
    254. D(C  37,C  36,C  35,P   0)    -10.8571         0.025037   
    255. D(H  52,C  37,C  36,N  44)    178.4859         0.021223   
    256. D(H  52,C  37,C  36,C  35)      1.7478         0.021223   
    257. D(C  38,C  37,C  36,N  44)      0.2040         0.021223   
    258. D(C  38,C  37,C  36,C  35)   -176.5341         0.021223   
    259. D(H  53,C  38,C  37,H  52)      0.9551         0.030676   
    260. D(H  53,C  38,C  37,C  36)    179.2112         0.030676   
    261. D(C  39,C  38,C  37,H  52)   -178.9911         0.030676   
    262. D(C  39,C  38,C  37,C  36)     -0.7350         0.030676   
    263. D(N  44,C  39,C  38,H  53)   -178.8995         0.023810   
    264. D(N  44,C  39,C  38,C  37)      1.0479         0.023810   
    265. D(H  19,C  39,C  38,H  53)      1.1223         0.023810   
    266. D(H  19,C  39,C  38,C  37)   -178.9303         0.023810   
    267. D(N  45,C  40,C  35,C  36)      5.0366         0.026218   
    268. D(N  45,C  40,C  35,P   0)   -172.6179         0.026218   
    269. D(C  41,C  40,C  35,C  36)   -170.6182         0.026218   
    270. D(C  41,C  40,C  35,P   0)     11.7273         0.026218   
    271. D(H  51,C  41,C  40,N  45)   -178.3897         0.020916   
    272. D(H  51,C  41,C  40,C  35)     -2.3367         0.020916   
    273. D(C  42,C  41,C  40,N  45)     -0.1891         0.020916   
    274. D(C  42,C  41,C  40,C  35)    175.8639         0.020916   
    275. D(H  49,C  42,C  41,H  51)     -1.1374         0.031090   
    276. D(H  49,C  42,C  41,C  40)   -179.3267         0.031090   
    277. D(C  43,C  42,C  41,H  51)    178.9167         0.031090   
    278. D(C  43,C  42,C  41,C  40)      0.7273         0.031090   
    279. D(H  50,C  43,C  42,H  49)     -1.0025         0.023678   
    280. D(H  50,C  43,C  42,C  41)    178.9446         0.023678   
    281. D(N  45,C  43,C  42,H  49)    179.0006         0.023678   
    282. D(N  45,C  43,C  42,C  41)     -1.0522         0.023678   
    283. D(B  46,N  44,C  36,C  35)    -10.9072         0.027416   
    284. D(C  39,N  44,C  36,C  37)      0.4471         0.027416   
    285. D(C  39,N  44,C  36,C  35)    177.5681         0.027416   
    286. D(B  46,N  44,C  39,C  38)   -172.0173         0.041767   
    287. D(B  46,N  44,C  39,H  19)      7.9630         0.041767   
    288. D(C  36,N  44,C  39,C  38)     -0.9245         0.041767   
    289. D(C  36,N  44,C  39,H  19)    179.0558         0.041767   
    290. D(B  46,N  44,C  36,C  37)    171.9718         0.027416   
    291. D(B  46,N  45,C  43,H  50)     -7.3414         0.042528   
    292. D(B  46,N  45,C  43,C  42)    172.6557         0.042528   
    293. D(C  40,N  45,C  43,H  50)   -179.0602         0.042528   
    294. D(C  40,N  45,C  43,C  42)      0.9369         0.042528   
    295. D(B  46,N  45,C  40,C  41)   -172.3511         0.026309   
    296. D(B  46,N  45,C  40,C  35)     10.9942         0.026309   
    297. D(C  43,N  45,C  40,C  41)     -0.4644         0.026309   
    298. D(C  43,N  45,C  40,C  35)   -177.1191         0.026309   
    299. D(F  48,B  46,N  45,C  40)     93.2519         0.010000   
    300. D(F  47,B  46,N  45,C  43)     46.5715         0.010000   
    301. D(F  47,B  46,N  45,C  40)   -142.9684         0.010000   
    302. D(N  44,B  46,N  45,C  43)    166.7921         0.010000   
    303. D(N  44,B  46,N  45,C  40)    -22.7478         0.010000   
    304. D(F  48,B  46,N  44,C  36)    -93.5065         0.010000   
    305. D(F  47,B  46,N  44,C  39)    -47.6723         0.010000   
    306. D(F  47,B  46,N  44,C  36)    142.4469         0.010000   
    307. D(N  45,B  46,N  44,C  39)   -167.6634         0.010000   
    308. D(N  45,B  46,N  44,C  36)     22.4558         0.010000   
    -----------------------------------------------------------------

Number of atoms                         .... 54
Number of degrees of freedom            .... 308


         *************************************************************
         *                GEOMETRY OPTIMIZATION CYCLE   1            *
         *************************************************************
---------------------------------
CARTESIAN COORDINATES (ANGSTROEM)
---------------------------------
  P    -6.286119   10.933144    1.519680
  C    -7.686192   13.922789    4.677714
  C    -7.307705   14.354542    3.414739
  C    -6.877018   13.440449    2.471609
  C    -6.837547   12.082602    2.794903
  C    -7.628118   12.576760    5.002695
  C    -7.204420   11.649947    4.065839
  C    -8.386606   11.793415   -0.111017
  C    -9.252775   11.657600   -1.181975
  C    -9.202214   10.525854   -1.980072
  C    -8.288113    9.519161   -1.707802
  C    -7.419183    9.641329   -0.639514
  C    -7.467993   10.784303    0.158777
  C    -3.190653   11.711383   -0.995414
  C    -4.373137   11.222190   -0.469063
  C    -4.739352   11.564309    0.830237
  C    -2.379981   12.540463   -0.235868
  C    -2.748011   12.884817    1.056578
  C    -3.925257   12.399779    1.595772
  H    -8.912647    5.945310    3.363848
  H    -8.020749   14.639150    5.411521
  H    -7.343295   15.404029    3.166827
  H    -7.911298   12.245191    5.989403
  H    -7.156528   10.601593    4.321237
  H    -6.557158   13.773441    1.492859
  H    -5.009902   10.583983   -1.064323
  H    -2.904128   11.447449   -2.001347
  H    -1.460735   12.922090   -0.651709
  H    -2.116799   13.531559    1.646008
  H    -4.210795   12.660244    2.605606
  H    -6.718623    8.847655   -0.416100
  H    -8.254092    8.634783   -2.324686
  H    -9.880305   10.424932   -2.812872
  H    -9.969957   12.436167   -1.390475
  H    -8.436617   12.669851    0.519114
  C    -6.144716    9.255306    2.197326
  C    -7.358035    8.608485    2.460324
  C    -8.691864    9.099191    2.481711
  C    -9.495782    8.056577    2.874539
  C    -8.656256    6.945443    3.070763
  C    -4.930423    8.604591    2.409844
  C    -3.579957    9.053928    2.397989
  C    -2.798900    7.988265    2.768519
  C    -3.665019    6.900807    2.985854
  N    -7.396214    7.283094    2.836283
  N    -4.918812    7.273103    2.785374
  B    -6.164238    6.338127    2.764841
  F    -6.141721    5.486203    3.821591
  F    -6.191423    5.679484    1.559940
  H    -1.733180    7.969337    2.875944
  H    -3.429271    5.893185    3.271621
  H    -3.244841   10.045504    2.172777
  H    -8.997174   10.104622    2.260346
  H   -10.558187    8.069178    3.011206

----------------------------
CARTESIAN COORDINATES (A.U.)
----------------------------
  NO LB    ZA    FRAG    MASS        X           Y           Z
   0 P  15.0000    0    30.974  -11.879044   20.660648    2.871778
   1 C   6.0000    0    12.011  -14.524799   26.310259    8.839599
   2 C   6.0000    0    12.011  -13.809560   27.126153    6.452922
   3 C   6.0000    0    12.011  -12.995680   25.398768    4.670664
   4 C   6.0000    0    12.011  -12.921090   22.832809    5.281601
   5 C   6.0000    0    12.011  -14.415054   23.766632    9.453723
   6 C   6.0000    0    12.011  -13.614380   22.015210    7.683323
   7 C   6.0000    0    12.011  -15.848388   22.286324   -0.209791
   8 C   6.0000    0    12.011  -17.485210   22.029670   -2.233610
   9 C   6.0000    0    12.011  -17.389665   19.890981   -3.741793
  10 C   6.0000    0    12.011  -15.662264   17.988607   -3.227277
  11 C   6.0000    0    12.011  -14.020223   18.219471   -1.208506
  12 C   6.0000    0    12.011  -14.112461   20.379378    0.300045
  13 C   6.0000    0    12.011   -6.029461   22.131307   -1.881060
  14 C   6.0000    0    12.011   -8.264031   21.206865   -0.886401
  15 C   6.0000    0    12.011   -8.956077   21.853378    1.568921
  16 C   6.0000    0    12.011   -4.497512   23.698040   -0.445726
  17 C   6.0000    0    12.011   -5.192988   24.348775    1.996644
  18 C   6.0000    0    12.011   -7.417661   23.432187    3.015571
  19 H   1.0000    0     1.008  -16.842462   11.235008    6.356751
  20 H   1.0000    0     1.008  -15.157018   27.663984   10.226292
  21 H   1.0000    0     1.008  -13.876817   29.109396    5.984437
  22 H   1.0000    0     1.008  -14.950186   23.140058   11.318331
  23 H   1.0000    0     1.008  -13.523878   20.034107    8.165955
  24 H   1.0000    0     1.008  -12.391234   26.028032    2.821096
  25 H   1.0000    0     1.008   -9.467342   20.000829   -2.011279
  26 H   1.0000    0     1.008   -5.488007   21.632544   -3.781999
  27 H   1.0000    0     1.008   -2.760389   24.419211   -1.231552
  28 H   1.0000    0     1.008   -4.000170   25.570941    3.110504
  29 H   1.0000    0     1.008   -7.957250   23.924395    4.923882
  30 H   1.0000    0     1.008  -12.696357   16.719645   -0.786314
  31 H   1.0000    0     1.008  -15.597974   16.317375   -4.393020
  32 H   1.0000    0     1.008  -18.671070   19.700266   -5.315558
  33 H   1.0000    0     1.008  -18.840489   23.500949   -2.627617
  34 H   1.0000    0     1.008  -15.942895   23.942549    0.980984
  35 C   6.0000    0    12.011  -11.611831   17.489993    4.152344
  36 C   6.0000    0    12.011  -13.904672   16.267680    4.649338
  37 C   6.0000    0    12.011  -16.425242   17.194979    4.689753
  38 C   6.0000    0    12.011  -17.944428   15.224724    5.432092
  39 C   6.0000    0    12.011  -16.357953   13.124986    5.802901
  40 C   6.0000    0    12.011   -9.317148   16.260321    4.553945
  41 C   6.0000    0    12.011   -6.765139   17.109445    4.531543
  42 C   6.0000    0    12.011   -5.289155   15.095634    5.231744
  43 C   6.0000    0    12.011   -6.925882   13.040636    5.642447
  44 N   7.0000    0    14.007  -13.976820   13.763053    5.359797
  45 N   7.0000    0    14.007   -9.295208   13.744173    5.263594
  46 B   5.0000    0    10.810  -11.648722   11.977324    5.224792
  47 F   9.0000    0    18.998  -11.606170   10.367421    7.221761
  48 F   9.0000    0    18.998  -11.700094   10.732670    2.947859
  49 H   1.0000    0     1.008   -3.275235   15.059864    5.434747
  50 H   1.0000    0     1.008   -6.480382   11.136506    6.182467
  51 H   1.0000    0     1.008   -6.131860   18.983251    4.105954
  52 H   1.0000    0     1.008  -17.002195   19.094969    4.271435
  53 H   1.0000    0     1.008  -19.952081   15.248537    5.690354

      -----------------------------------------------------------      
     |                   =====================                   |     
     |                           x T B                           |     
     |                   =====================                   |     
     |                         S. Grimme                         |     
     |          Mulliken Center for Theoretical Chemistry        |     
     |                    University of Bonn                     |     
      -----------------------------------------------------------      

   * xtb version 6.7.1 (edcfbbe) compiled by 'albert@albert-system' on 2024-07-22

   xtb is free software: you can redistribute it and/or modify it under
   the terms of the GNU Lesser General Public License as published by
   the Free Software Foundation, either version 3 of the License, or
   (at your option) any later version.
   
   xtb is distributed in the hope that it will be useful,
   but WITHOUT ANY WARRANTY; without even the implied warranty of
   MERCHANTABILITY or FITNESS FOR A PARTICULAR PURPOSE.  See the
   GNU Lesser General Public License for more details.
   
   Cite this work as:
   * C. Bannwarth, E. Caldeweyher, S. Ehlert, A. Hansen, P. Pracht,
     J. Seibert, S. Spicher, S. Grimme, WIREs Comput. Mol. Sci., 2020, 11,
     e01493. DOI: 10.1002/wcms.1493
   
   for GFN2-xTB:
   * C. Bannwarth, S. Ehlert and S. Grimme., J. Chem. Theory Comput., 2019,
     15, 1652-1671. DOI: 10.1021/acs.jctc.8b01176
   for GFN1-xTB:
   * S. Grimme, C. Bannwarth, P. Shushkov, J. Chem. Theory Comput., 2017,
     13, 1989-2009. DOI: 10.1021/acs.jctc.7b00118
   for GFN0-xTB:
   * P. Pracht, E. Caldeweyher, S. Ehlert, S. Grimme, ChemRxiv, 2019, preprint.
     DOI: 10.26434/chemrxiv.8326202.v1
   for GFN-FF:
   * S. Spicher and S. Grimme, Angew. Chem. Int. Ed., 2020, 59, 15665-15673.
     DOI: 10.1002/anie.202004239
   
   for ALPB and GBSA implicit solvation:
   * S. Ehlert, M. Stahn, S. Spicher, S. Grimme, J. Chem. Theory Comput.,
     2021, 17, 4250-4261. DOI: 10.1021/acs.jctc.1c00471
   
   for ddCOSMO and CPCM-X implicit solvation:
   * M. Stahn, S. Ehlert, S. Grimme, J. Phys. Chem. A,
     2023, XX, XXXX-XXXX. DOI: 10.1021/acs.jpca.3c04382
   
   for DFT-D4:
   * E. Caldeweyher, C. Bannwarth and S. Grimme, J. Chem. Phys., 2017,
     147, 034112. DOI: 10.1063/1.4993215
   * E. Caldeweyher, S. Ehlert, A. Hansen, H. Neugebauer, S. Spicher,
     C. Bannwarth and S. Grimme, J. Chem. Phys., 2019, 150, 154122.
     DOI: 10.1063/1.5090222
   * E. Caldeweyher, J.-M. Mewes, S. Ehlert and S. Grimme, Phys. Chem. Chem. Phys.
     2020, 22, 8499-8512. DOI: 10.1039/D0CP00502A
   
   for sTDA-xTB:
   * S. Grimme and C. Bannwarth, J. Chem. Phys., 2016, 145, 054103.
     DOI: 10.1063/1.4959605
   
   in the mass-spec context:
   * V. Asgeirsson, C. Bauer and S. Grimme, Chem. Sci., 2017, 8, 4879.
     DOI: 10.1039/c7sc00601b
   * J. Koopman and S. Grimme, ACS Omega 2019, 4, 12, 15120-15133.
     DOI: 10.1021/acsomega.9b02011
   
   for metadynamics refer to:
   * S. Grimme, J. Chem. Theory Comput., 2019, 155, 2847-2862
     DOI: 10.1021/acs.jctc.9b00143
   
   for SPH calculations refer to:
   * S. Spicher and S. Grimme, J. Chem. Theory Comput., 2021, 17, 1701-1714
     DOI: 10.1021/acs.jctc.0c01306
   
   for ONIOM refer to:
   * C. Plett, A. Katbashev, S. Ehlert, S. Grimme, M. Bursch,
     Phys. Chem. Chem. Phys., 2023, 25, 17860-17868. DOI: 10.1039/D3CP02178E
   
   for DIPRO refer to:
   * J. Kohn, N. Gildemeister, S. Grimme, D. Fazzi, A. Hansen,
     J. Chem. Phys., 2023, just accepted.
   
   for PTB refer to:
   * S. Grimme, M. Mueller, A. Hansen, J. Chem. Phys., 2023, 158, 124111.
     DOI: 10.1063/5.0137838
   
   with help from (in alphabetical order)
   P. Atkinson, C. Bannwarth, F. Bohle, G. Brandenburg, E. Caldeweyher
   M. Checinski, S. Dohm, S. Ehlert, S. Ehrlich, I. Gerasimov, C. Hölzer
   A. Katbashev, J. Kohn, J. Koopman, C. Lavigne, S. Lehtola, F. März, M. Müller,
   F. Musil, H. Neugebauer, J. Pisarek, C. Plett, P. Pracht, F. Pultar,
   J. Seibert, P. Shushkov, S. Spicher, M. Stahn, M. Steiner, T. Strunk,
   J. Stückrath, T. Rose, and J. Unsleber
   
 * started run on 2026/01/02 at 06:01:28.407     
   ID    Z sym.   atoms
    1   15 P      1
    2    6 C      2-19, 36-44
    3    1 H      20-35, 50-54
    4    7 N      45, 46
    5    5 B      47
    6    9 F      48, 49

           -------------------------------------------------
          |                Calculation Setup                |
           -------------------------------------------------

          program call               : otool_xtb TPP_Opt_XTB.xyz --grad -c 1 -u 0 -P 1 --namespace TPP_Opt --input TPP_Opt_XTB.input.tmp --acc 0.200000
          calculation namespace      : TPP_Opt
          coordinate file            : TPP_Opt_XTB.xyz
          omp threads                :                     1


           -------------------------------------------------
          |                 G F N 2 - x T B                 |
           -------------------------------------------------

        Reference                      10.1021/acs.jctc.8b01176
      * Hamiltonian:
        H0-scaling (s, p, d)           1.850000    2.230000    2.230000
        zeta-weighting                 0.500000
      * Dispersion:
        s8                             2.700000
        a1                             0.520000
        a2                             5.000000
        s9                             5.000000
      * Repulsion:
        kExp                           1.500000    1.000000
        rExp                           1.000000
      * Coulomb:
        alpha                          2.000000
        third order                    shell-resolved
        anisotropic                    true
        a3                             3.000000
        a5                             4.000000
        cn-shift                       1.200000
        cn-exp                         4.000000
        max-rad                        5.000000


          ...................................................
          :                      SETUP                      :
          :.................................................:
          :  # basis functions                 159          :
          :  # atomic orbitals                 158          :
          :  # shells                           88          :
          :  # electrons                       160          :
          :  max. iterations                   250          :
          :  Hamiltonian                  GFN2-xTB          :
          :  restarted?                      false          :
          :  GBSA solvation                  false          :
          :  PC potential                    false          :
          :  electronic temp.          300.0000000     K    :
          :  accuracy                    0.2000000          :
          :  -> integral cutoff          0.3198970E+02      :
          :  -> integral neglect         0.2000000E-08      :
          :  -> SCF convergence          0.2000000E-06 Eh   :
          :  -> wf. convergence          0.2000000E-04 e    :
          :  Broyden damping             0.4000000          :
          :  net charge                          1          :
          :  unpaired electrons                  0          :
          ...................................................

 iter      E             dE          RMSdq      gap      omega  full diag
   1    -88.5407646 -0.885408E+02  0.493E+00    1.81       0.0  T
   2    -88.6928408 -0.152076E+00  0.324E+00    1.40       1.0  T
   3    -88.5877413  0.105100E+00  0.161E+00    1.94       1.0  T
   4    -88.7155937 -0.127852E+00  0.717E-01    1.41       1.0  T
   5    -88.7423101 -0.267165E-01  0.253E-01    1.56       1.0  T
   6    -88.7434547 -0.114455E-02  0.106E-01    1.53       1.0  T
   7    -88.7436196 -0.164890E-03  0.660E-02    1.54       1.0  T
   8    -88.7437212 -0.101673E-03  0.439E-02    1.54       1.0  T
   9    -88.7438473 -0.126026E-03  0.110E-02    1.54       1.2  T
  10    -88.7438491 -0.186682E-05  0.388E-03    1.54       3.5  T
  11    -88.7438497 -0.607828E-06  0.181E-03    1.54       7.5  T
  12    -88.7438497 -0.568099E-08  0.651E-04    1.54      20.9  T
  13    -88.7438498 -0.242010E-07  0.236E-04    1.54      57.7  T
  14    -88.7438498 -0.109006E-08  0.114E-04    1.54     119.8  T
  15    -88.7438498 -0.470948E-09  0.504E-05    1.54     270.1  T

   *** convergence criteria satisfied after 15 iterations ***

         #    Occupation            Energy/Eh            Energy/eV
      -------------------------------------------------------------
         1        2.0000           -0.8630484             -23.4847
       ...           ...                  ...                  ...
        74        2.0000           -0.5399352             -14.6924
        75        2.0000           -0.5396868             -14.6856
        76        2.0000           -0.5384370             -14.6516
        77        2.0000           -0.5328240             -14.4989
        78        2.0000           -0.5311104             -14.4523
        79        2.0000           -0.5305124             -14.4360
        80        2.0000           -0.5058611             -13.7652 (HOMO)
        81                         -0.4492718             -12.2253 (LUMO)
        82                         -0.3882951             -10.5660
        83                         -0.3871219             -10.5341
        84                         -0.3719442             -10.1211
        85                         -0.3630033              -9.8778
       ...                                ...                  ...
       158                          0.8547847              23.2599
      -------------------------------------------------------------
                  HL-Gap            0.0565893 Eh            1.5399 eV
             Fermi-level           -0.4775665 Eh          -12.9952 eV

 SCC (total)                   0 d,  0 h,  0 min,  0.110 sec
 SCC setup                      ...        0 min,  0.000 sec (  0.328%)
 Dispersion                     ...        0 min,  0.001 sec (  0.748%)
 classical contributions        ...        0 min,  0.000 sec (  0.090%)
 integral evaluation            ...        0 min,  0.016 sec ( 14.203%)
 iterations                     ...        0 min,  0.050 sec ( 45.440%)
 molecular gradient             ...        0 min,  0.043 sec ( 38.816%)
 printout                       ...        0 min,  0.000 sec (  0.351%)

         :::::::::::::::::::::::::::::::::::::::::::::::::::::
         ::                     SUMMARY                     ::
         :::::::::::::::::::::::::::::::::::::::::::::::::::::
         :: total energy             -87.306932130807 Eh    ::
         :: gradient norm              0.000378648919 Eh/a0 ::
         :: HOMO-LUMO gap              1.539873582563 eV    ::
         ::.................................................::
         :: SCC energy               -88.741365231180 Eh    ::
         :: -> isotropic ES            0.148281912801 Eh    ::
         :: -> anisotropic ES         -0.017522747462 Eh    ::
         :: -> anisotropic XC          0.044865204905 Eh    ::
         :: -> dispersion             -0.078143180798 Eh    ::
         :: repulsion energy           1.434433100373 Eh    ::
         :: add. restraining           0.000000000000 Eh    ::
         :: total charge               1.000000000000 e     ::
         :::::::::::::::::::::::::::::::::::::::::::::::::::::


Property printout bound to 'properties.out'

           -------------------------------------------------
          | TOTAL ENERGY              -87.306932130807 Eh   |
          | GRADIENT NORM               0.000378648919 Eh/α |
          | HOMO-LUMO GAP               1.539873582563 eV   |
           -------------------------------------------------

------------------------------------------------------------------------
 * finished run on 2026/01/02 at 06:01:28.540     
------------------------------------------------------------------------
 total:
 * wall-time:     0 d,  0 h,  0 min,  0.132 sec
 *  cpu-time:     0 d,  0 h,  0 min,  0.131 sec
 * ratio c/w:     0.994 speedup
 SCF:
 * wall-time:     0 d,  0 h,  0 min,  0.110 sec
 *  cpu-time:     0 d,  0 h,  0 min,  0.110 sec
 * ratio c/w:     0.993 speedup


-------------------------   --------------------
FINAL SINGLE POINT ENERGY       -87.306932130810
-------------------------   --------------------


-------------
DIPOLE MOMENT
-------------
                                X             Y             Z
Total Dipole Moment    :    -11.87700      22.67700       2.72100
                        -----------------------------------------
Magnitude (a.u.)       :     25.74322
Magnitude (Debye)      :     65.43406


------------------
CARTESIAN GRADIENT
------------------

   1   P   :    0.000017651    0.000131120   -0.000027364
   2   C   :    0.000096569    0.000009986    0.000040446
   3   C   :   -0.000059846   -0.000016365   -0.000008978
   4   C   :    0.000022081    0.000017147    0.000008042
   5   C   :    0.000015610   -0.000062449    0.000020872
   6   C   :   -0.000052542   -0.000002263   -0.000045371
   7   C   :    0.000012935    0.000018673    0.000030315
   8   C   :   -0.000017418   -0.000043002   -0.000017142
   9   C   :    0.000009587    0.000028542    0.000001740
  10   C   :    0.000012839   -0.000038313    0.000028009
  11   C   :    0.000013127    0.000000558   -0.000041675
  12   C   :   -0.000026871    0.000040456    0.000055997
  13   C   :    0.000007125   -0.000007171   -0.000020706
  14   C   :   -0.000025505   -0.000023018    0.000000585
  15   C   :    0.000024722    0.000036957    0.000035716
  16   C   :   -0.000059749   -0.000040634    0.000001908
  17   C   :    0.000016528   -0.000017859   -0.000010830
  18   C   :   -0.000015593   -0.000004021    0.000003878
  19   C   :   -0.000001403   -0.000003348   -0.000018186
  20   H   :    0.000001614   -0.000001923   -0.000008778
  21   H   :   -0.000030658   -0.000002972   -0.000013454
  22   H   :    0.000014082   -0.000001145   -0.000003823
  23   H   :    0.000012818   -0.000000655    0.000003852
  24   H   :   -0.000002323   -0.000000954   -0.000011170
  25   H   :   -0.000004238   -0.000012494   -0.000007029
  26   H   :    0.000010578   -0.000003970   -0.000015218
  27   H   :    0.000004535    0.000013060   -0.000001032
  28   H   :    0.000001693    0.000009817    0.000001969
  29   H   :    0.000004798    0.000004724    0.000005065
  30   H   :    0.000007246    0.000012107    0.000002782
  31   H   :   -0.000009576   -0.000022234   -0.000030092
  32   H   :   -0.000001627    0.000000929    0.000005612
  33   H   :   -0.000003530    0.000011261   -0.000000725
  34   H   :   -0.000001248   -0.000008064   -0.000003953
  35   H   :   -0.000001635    0.000005440    0.000005303
  36   C   :    0.000002591   -0.000062393    0.000027671
  37   C   :    0.000007516   -0.000018351    0.000060112
  38   C   :    0.000006065    0.000067324    0.000040663
  39   C   :    0.000022154   -0.000036422   -0.000076960
  40   C   :   -0.000010009   -0.000013140    0.000055696
  41   C   :    0.000040242    0.000047570   -0.000014439
  42   C   :   -0.000000277   -0.000009097   -0.000051018
  43   C   :   -0.000042278   -0.000004371    0.000094418
  44   C   :    0.000010706    0.000026531    0.000003252
  45   N   :    0.000009699    0.000022893   -0.000095600
  46   N   :   -0.000014958   -0.000052936   -0.000030077
  47   B   :   -0.000020258    0.000053785    0.000053989
  48   F   :    0.000017138   -0.000015305   -0.000010349
  49   F   :   -0.000011615   -0.000027358   -0.000016749
  50   H   :    0.000007496   -0.000003573   -0.000033047
  51   H   :    0.000001364   -0.000000639    0.000002573
  52   H   :    0.000002354   -0.000001542    0.000013242
  53   H   :   -0.000018280   -0.000015636   -0.000015025
  54   H   :   -0.000002026    0.000014739    0.000025081

Difference to translation invariance:
           :    0.0000000000    0.0000000000    0.0000000000

Difference to rotation invariance:
           :   -0.0000000325   -0.0000000302    0.0000000234

Norm of the Cartesian gradient     ...    0.0003786489
RMS gradient                       ...    0.0000297495
MAX gradient                       ...    0.0001311199
------------------------------------------------------------------------------
                         ORCA GEOMETRY RELAXATION STEP
------------------------------------------------------------------------------

Reading the OPT-File                    .... done
Getting information on internals        .... done
Copying old internal coords+grads       .... done
Making the new internal coordinates     .... (2022 redundants) done
Validating the new internal coordinates .... (2022 redundants) done
Calculating the B-matrix                .... done
Calculating the G,G- and P matrices     .... done
Transforming gradient to internals      .... done
Projecting the internal gradient        .... done
Number of atoms                         ....  54
Number of internal coordinates          .... 308
Current Energy                          ....   -87.306932131 Eh
Current gradient norm                   ....     0.000378649 Eh/bohr
Maximum allowed component of the step   ....  0.300
Current trust radius                    ....  0.300
Evaluating the initial hessian          ....  (Almloef) done
Projecting the Hessian                  .... done
Forming the augmented Hessian           .... done
Diagonalizing the augmented Hessian     .... done
Last element of RFO vector              ....  0.999992616
Lowest eigenvalues of augmented Hessian:
 -0.000000462  0.010000000  0.010000000  0.010000000  0.010000013
Length of the computed step             ....  0.003842958
The final length of the internal step   ....  0.003842958
Converting the step to Cartesian space:
 Initial RMS(Int)=    0.0002189729
Transforming coordinates:
 Iter   0:  RMS(Cart)=    0.0009292318 RMS(Int)=    0.0002189724
done
Storing new coordinates                 .... done

                                .--------------------.
          ----------------------|Geometry convergence|-------------------------
          Item                value                   Tolerance       Converged
          ---------------------------------------------------------------------
          RMS gradient        0.0000129036            0.0001000000      YES
          MAX gradient        0.0000572728            0.0003000000      YES
          RMS step            0.0002189729            0.0020000000      YES
          MAX step            0.0009011591            0.0040000000      YES
          -------------------------------------------------------------------------
          ........................................................
          Max(Bonds)      0.0000      Max(Angles)    0.01
          Max(Dihed)        0.05      Max(Improp)    0.00
          ---------------------------------------------------------------------

                    ***********************HURRAY********************
                    ***        THE OPTIMIZATION HAS CONVERGED     ***
                    *************************************************


    ---------------------------------------------------------------------------
                         Redundant Internal Coordinates

                          --- Optimized Parameters ---  
                            (Angstroem and degrees)

        Definition                    OldVal   dE/dq     Step     FinalVal
    ----------------------------------------------------------------------------
     1. B(C   2,C   1)                1.3874 -0.000005  0.0000    1.3874   
     2. B(C   3,C   2)                1.3822 -0.000009  0.0000    1.3822   
     3. B(C   4,P   0)                1.8032 -0.000032  0.0000    1.8032   
     4. B(C   4,C   3)                1.3964 -0.000007  0.0000    1.3964   
     5. B(C   5,C   1)                1.3859 -0.000004  0.0000    1.3859   
     6. B(C   6,C   4)                1.3918 -0.000008  0.0000    1.3918   
     7. B(C   6,C   5)                1.3843 -0.000012  0.0000    1.3843   
     8. B(C   8,C   7)                1.3841 -0.000012  0.0000    1.3841   
     9. B(C   9,C   8)                1.3858 -0.000001  0.0000    1.3858   
    10. B(C  10,C   9)                1.3868 -0.000026  0.0000    1.3868   
    11. B(C  11,C  10)                1.3825  0.000002 -0.0000    1.3825   
    12. B(C  12,C  11)                1.3950 -0.000003  0.0000    1.3950   
    13. B(C  12,C   7)                1.3910 -0.000008  0.0000    1.3910   
    14. B(C  12,P   0)                1.8086  0.000028 -0.0000    1.8086   
    15. B(C  14,C  13)                1.3837 -0.000011  0.0000    1.3837   
    16. B(C  15,C  14)                1.3926 -0.000005  0.0000    1.3926   
    17. B(C  15,P   0)                1.8073 -0.000036  0.0000    1.8073   
    18. B(C  16,C  13)                1.3862 -0.000005  0.0000    1.3862   
    19. B(C  17,C  16)                1.3872 -0.000000  0.0000    1.3872   
    20. B(C  18,C  17)                1.3827 -0.000007  0.0000    1.3827   
    21. B(C  18,C  15)                1.3953  0.000005 -0.0000    1.3953   
    22. B(H  20,C   1)                1.0787 -0.000002  0.0000    1.0787   
    23. B(H  21,C   2)                1.0790 -0.000001  0.0000    1.0790   
    24. B(H  22,C   5)                1.0788  0.000000 -0.0000    1.0788   
    25. B(H  23,C   6)                1.0801 -0.000002  0.0000    1.0801   
    26. B(H  24,C   3)                1.0822  0.000001 -0.0000    1.0822   
    27. B(H  25,C  14)                1.0803  0.000004 -0.0000    1.0803   
    28. B(H  26,C  13)                1.0787 -0.000001  0.0000    1.0787   
    29. B(H  27,C  16)                1.0787  0.000004 -0.0000    1.0787   
    30. B(H  28,C  17)                1.0789  0.000008 -0.0000    1.0789   
    31. B(H  29,C  18)                1.0813  0.000004 -0.0000    1.0813   
    32. B(H  30,C  11)                1.0820  0.000004 -0.0000    1.0819   
    33. B(H  31,C  10)                1.0788 -0.000004  0.0000    1.0788   
    34. B(H  32,C   9)                1.0787  0.000002 -0.0000    1.0787   
    35. B(H  33,C   8)                1.0789 -0.000004  0.0000    1.0789   
    36. B(H  34,C   7)                1.0806  0.000008 -0.0000    1.0806   
    37. B(C  35,P   0)                1.8150  0.000038 -0.0000    1.8150   
    38. B(C  36,C  35)                1.3999 -0.000010  0.0000    1.3999   
    39. B(C  37,C  36)                1.4214  0.000014 -0.0000    1.4214   
    40. B(C  38,C  37)                1.3739  0.000004 -0.0000    1.3739   
    41. B(C  39,C  38)                1.4064 -0.000004  0.0000    1.4064   
    42. B(C  39,H  19)                1.0733 -0.000001  0.0000    1.0733   
    43. B(C  40,C  35)                1.3940  0.000002 -0.0000    1.3940   
    44. B(C  41,C  40)                1.4233 -0.000015  0.0000    1.4233   
    45. B(C  42,C  41)                1.3722 -0.000000 -0.0000    1.3722   
    46. B(C  43,C  42)                1.4071 -0.000024  0.0000    1.4071   
    47. B(N  44,C  39)                1.3254  0.000004 -0.0000    1.3254   
    48. B(N  44,C  36)                1.3782 -0.000027  0.0000    1.3782   
    49. B(N  45,C  43)                1.3232 -0.000007  0.0000    1.3232   
    50. B(N  45,C  40)                1.3835  0.000033 -0.0000    1.3835   
    51. B(B  46,N  45)                1.5575 -0.000005  0.0000    1.5575   
    52. B(B  46,N  44)                1.5543 -0.000019  0.0000    1.5543   
    53. B(F  47,B  46)                1.3576  0.000002 -0.0000    1.3576   
    54. B(F  48,B  46)                1.3734  0.000028 -0.0000    1.3734   
    55. B(H  49,C  42)                1.0713  0.000004 -0.0000    1.0713   
    56. B(H  50,C  43)                1.0736  0.000002 -0.0000    1.0736   
    57. B(H  51,C  41)                1.0706 -0.000003  0.0000    1.0706   
    58. B(H  52,C  37)                1.0738 -0.000006  0.0000    1.0738   
    59. B(H  53,C  38)                1.0712  0.000005 -0.0000    1.0712   
    60. A(C   4,P   0,C  12)          112.63  0.000030   -0.01    112.62   
    61. A(C  15,P   0,C  35)          113.49  0.000026   -0.00    113.49   
    62. A(C   4,P   0,C  35)          110.43 -0.000020    0.01    110.44   
    63. A(C   4,P   0,C  15)          107.99 -0.000013    0.00    107.99   
    64. A(C  12,P   0,C  15)          107.52  0.000009   -0.01    107.51   
    65. A(C  12,P   0,C  35)          104.82 -0.000030    0.01    104.83   
    66. A(C   5,C   1,H  20)          119.90  0.000006   -0.00    119.90   
    67. A(C   2,C   1,C   5)          120.28 -0.000006    0.00    120.28   
    68. A(C   2,C   1,H  20)          119.82  0.000001   -0.00    119.82   
    69. A(C   3,C   2,H  21)          119.79 -0.000009    0.00    119.79   
    70. A(C   1,C   2,C   3)          120.02 -0.000000    0.00    120.02   
    71. A(C   1,C   2,H  21)          120.19  0.000009   -0.00    120.19   
    72. A(C   2,C   3,C   4)          119.60  0.000002   -0.00    119.60   
    73. A(C   4,C   3,H  24)          120.02 -0.000014    0.00    120.02   
    74. A(C   2,C   3,H  24)          120.38  0.000012   -0.00    120.38   
    75. A(P   0,C   4,C   3)          117.70 -0.000039    0.01    117.70   
    76. A(P   0,C   4,C   6)          121.89  0.000038   -0.00    121.88   
    77. A(C   3,C   4,C   6)          120.42  0.000001   -0.00    120.41   
    78. A(C   1,C   5,C   6)          120.29  0.000009   -0.00    120.29   
    79. A(C   6,C   5,H  22)          119.58 -0.000007    0.00    119.58   
    80. A(C   1,C   5,H  22)          120.13 -0.000002    0.00    120.13   
    81. A(C   4,C   6,H  23)          120.40 -0.000007    0.00    120.40   
    82. A(C   5,C   6,H  23)          120.23  0.000012   -0.00    120.22   
    83. A(C   4,C   6,C   5)          119.38 -0.000005    0.00    119.38   
    84. A(C  12,C   7,H  34)          120.39 -0.000006    0.00    120.39   
    85. A(C   8,C   7,H  34)          120.12 -0.000006    0.00    120.12   
    86. A(C   8,C   7,C  12)          119.48  0.000012   -0.00    119.48   
    87. A(C   7,C   8,H  33)          119.65  0.000010   -0.00    119.65   
    88. A(C   9,C   8,H  33)          120.15 -0.000006    0.00    120.15   
    89. A(C   7,C   8,C   9)          120.19 -0.000003    0.00    120.20   
    90. A(C  10,C   9,H  32)          119.87  0.000008   -0.00    119.87   
    91. A(C   8,C   9,H  32)          119.88 -0.000015    0.00    119.88   
    92. A(C   8,C   9,C  10)          120.25  0.000006   -0.00    120.25   
    93. A(C   9,C  10,H  31)          120.24  0.000007   -0.00    120.24   
    94. A(C  11,C  10,H  31)          119.64  0.000004   -0.00    119.64   
    95. A(C   9,C  10,C  11)          120.12 -0.000011    0.00    120.13   
    96. A(C  10,C  11,C  12)          119.51  0.000017   -0.00    119.51   
    97. A(C  10,C  11,H  30)          120.11 -0.000048    0.01    120.12   
    98. A(C  12,C  11,H  30)          120.37  0.000031   -0.01    120.36   
    99. A(P   0,C  12,C   7)          121.18  0.000012   -0.00    121.18   
   100. A(C   7,C  12,C  11)          120.43 -0.000021    0.00    120.43   
   101. A(P   0,C  12,C  11)          118.37  0.000009   -0.00    118.37   
   102. A(C  14,C  13,H  26)          119.68  0.000010   -0.00    119.68   
   103. A(C  14,C  13,C  16)          120.19  0.000002   -0.00    120.19   
   104. A(C  16,C  13,H  26)          120.13 -0.000012    0.00    120.13   
   105. A(C  13,C  14,C  15)          119.52  0.000019   -0.00    119.52   
   106. A(C  15,C  14,H  25)          120.28  0.000009   -0.00    120.28   
   107. A(C  13,C  14,H  25)          120.20 -0.000028    0.00    120.20   
   108. A(C  14,C  15,C  18)          120.37 -0.000026    0.00    120.37   
   109. A(P   0,C  15,C  18)          119.95 -0.000017    0.00    119.95   
   110. A(P   0,C  15,C  14)          119.68  0.000043   -0.01    119.68   
   111. A(C  17,C  16,H  27)          119.83 -0.000001    0.00    119.83   
   112. A(C  13,C  16,H  27)          119.92  0.000013   -0.00    119.92   
   113. A(C  13,C  16,C  17)          120.25 -0.000012    0.00    120.25   
   114. A(C  16,C  17,C  18)          120.14  0.000004   -0.00    120.14   
   115. A(C  18,C  17,H  28)          119.69 -0.000003    0.00    119.69   
   116. A(C  16,C  17,H  28)          120.17 -0.000002    0.00    120.17   
   117. A(C  15,C  18,C  17)          119.53  0.000012   -0.00    119.53   
   118. A(C  15,C  18,H  29)          120.17  0.000007   -0.00    120.17   
   119. A(C  17,C  18,H  29)          120.30 -0.000019    0.00    120.30   
   120. A(P   0,C  35,C  36)          115.45 -0.000057    0.01    115.46   
   121. A(C  36,C  35,C  40)          120.71  0.000013   -0.00    120.71   
   122. A(P   0,C  35,C  40)          123.80  0.000044   -0.01    123.80   
   123. A(C  35,C  36,C  37)          131.04 -0.000011    0.00    131.05   
   124. A(C  37,C  36,N  44)          107.57  0.000009   -0.00    107.57   
   125. A(C  35,C  36,N  44)          121.31  0.000003   -0.00    121.30   
   126. A(C  36,C  37,C  38)          106.94 -0.000021    0.00    106.94   
   127. A(C  38,C  37,H  52)          127.09 -0.000008    0.00    127.09   
   128. A(C  36,C  37,H  52)          125.94  0.000029   -0.00    125.94   
   129. A(C  39,C  38,H  53)          125.70 -0.000001    0.00    125.70   
   130. A(C  37,C  38,H  53)          127.43 -0.000016    0.00    127.44   
   131. A(C  37,C  38,C  39)          106.87  0.000017   -0.00    106.86   
   132. A(C  38,C  39,N  44)          109.97 -0.000015    0.00    109.97   
   133. A(H  19,C  39,N  44)          120.85  0.000005   -0.00    120.85   
   134. A(H  19,C  39,C  38)          129.18  0.000010   -0.00    129.18   
   135. A(C  41,C  40,N  45)          107.35  0.000002   -0.00    107.35   
   136. A(C  35,C  40,N  45)          119.87 -0.000029    0.01    119.87   
   137. A(C  35,C  40,C  41)          132.68  0.000027   -0.00    132.67   
   138. A(C  40,C  41,H  51)          126.24  0.000009   -0.00    126.24   
   139. A(C  42,C  41,H  51)          126.72 -0.000001    0.00    126.72   
   140. A(C  40,C  41,C  42)          107.02 -0.000009    0.00    107.02   
   141. A(C  43,C  42,H  49)          125.68 -0.000002    0.00    125.68   
   142. A(C  41,C  42,H  49)          127.38 -0.000013    0.00    127.38   
   143. A(C  41,C  42,C  43)          106.95  0.000015   -0.00    106.95   
   144. A(N  45,C  43,H  50)          120.83 -0.000000   -0.00    120.83   
   145. A(C  42,C  43,H  50)          129.15 -0.000003    0.00    129.15   
   146. A(C  42,C  43,N  45)          110.02  0.000003    0.00    110.02   
   147. A(C  39,N  44,B  46)          127.36 -0.000018    0.00    127.36   
   148. A(C  36,N  44,B  46)          123.38  0.000010   -0.00    123.38   
   149. A(C  36,N  44,C  39)          108.64  0.000010   -0.00    108.64   
   150. A(C  43,N  45,B  46)          126.21  0.000004   -0.00    126.21   
   151. A(C  40,N  45,B  46)          124.57  0.000009   -0.00    124.57   
   152. A(C  40,N  45,C  43)          108.66 -0.000012    0.00    108.66   
   153. A(F  47,B  46,F  48)          112.47 -0.000015    0.00    112.48   
   154. A(N  45,B  46,F  48)          108.38  0.000017   -0.00    108.37   
   155. A(N  44,B  46,F  48)          108.43 -0.000004    0.00    108.43   
   156. A(N  45,B  46,F  47)          110.68 -0.000009    0.00    110.69   
   157. A(N  44,B  46,F  47)          111.03  0.000016   -0.00    111.03   
   158. A(N  44,B  46,N  45)          105.56 -0.000004    0.00    105.56   
   159. D(H  21,C   2,C   1,H  20)      0.26  0.000020   -0.04      0.22   
   160. D(H  21,C   2,C   1,C   5)   -179.33 -0.000008    0.02   -179.32   
   161. D(C   3,C   2,C   1,C   5)      0.34 -0.000019    0.04      0.38   
   162. D(C   3,C   2,C   1,H  20)    179.93  0.000009   -0.02    179.91   
   163. D(C   4,C   3,C   2,H  21)   -179.75 -0.000001    0.00   -179.75   
   164. D(H  24,C   3,C   2,C   1)   -178.48  0.000004   -0.01   -178.49   
   165. D(H  24,C   3,C   2,H  21)      1.20 -0.000007    0.02      1.21   
   166. D(C   4,C   3,C   2,C   1)      0.58  0.000011   -0.02      0.56   
[...]

----------------------------
CARTESIAN COORDINATES (A.U.)
----------------------------
  NO LB    ZA    FRAG    MASS        X           Y           Z
   0 P  15.0000    0    30.974  -11.879286   20.660417    2.871972
   1 C   6.0000    0    12.011  -14.526620   26.310276    8.838977
   2 C   6.0000    0    12.011  -13.810202   27.126259    6.452675
   3 C   6.0000    0    12.011  -12.996158   25.398844    4.670501
   4 C   6.0000    0    12.011  -12.921825   22.832862    5.281423
   5 C   6.0000    0    12.011  -14.416451   23.766720    9.453348
   6 C   6.0000    0    12.011  -13.615622   22.015271    7.683016
   7 C   6.0000    0    12.011  -15.847349   22.287060   -0.210581
   8 C   6.0000    0    12.011  -17.483901   22.030633   -2.234671
   9 C   6.0000    0    12.011  -17.388672   19.891778   -3.742643
  10 C   6.0000    0    12.011  -15.662046   17.988834   -3.227430
  11 C   6.0000    0    12.011  -14.020099   18.219529   -1.208568
  12 C   6.0000    0    12.011  -14.112230   20.379526    0.299870
  13 C   6.0000    0    12.011   -6.029676   22.131450   -1.880657
  14 C   6.0000    0    12.011   -8.264295   21.206991   -0.886080
  15 C   6.0000    0    12.011   -8.956082   21.853129    1.569424
  16 C   6.0000    0    12.011   -4.497566   23.697819   -0.445084
  17 C   6.0000    0    12.011   -5.192709   24.347961    1.997539
  18 C   6.0000    0    12.011   -7.417379   23.431309    3.016440
  19 H   1.0000    0     1.008  -16.841915   11.235062    6.359484
  20 H   1.0000    0     1.008  -15.158417   27.664088   10.225784
  21 H   1.0000    0     1.008  -13.877341   29.109519    5.984239
  22 H   1.0000    0     1.008  -14.952080   23.140154   11.317814
  23 H   1.0000    0     1.008  -13.525065   20.034197    8.165776
  24 H   1.0000    0     1.008  -12.391008   26.028208    2.821201
  25 H   1.0000    0     1.008   -9.467891   20.001352   -2.011057
  26 H   1.0000    0     1.008   -5.488282   21.632808   -3.781648
  27 H   1.0000    0     1.008   -2.760335   24.418803   -1.230814
  28 H   1.0000    0     1.008   -3.999636   25.569647    3.111613
  29 H   1.0000    0     1.008   -7.956768   23.922908    4.924954
  30 H   1.0000    0     1.008  -12.696687   16.719485   -0.785778
  31 H   1.0000    0     1.008  -15.598001   16.317479   -4.393029
  32 H   1.0000    0     1.008  -18.669841   19.701182   -5.316609
  33 H   1.0000    0     1.008  -18.838582   23.502355   -2.629136
  34 H   1.0000    0     1.008  -15.941542   23.943446    0.979961
  35 C   6.0000    0    12.011  -11.612115   17.489837    4.152504
  36 C   6.0000    0    12.011  -13.904814   16.267380    4.649866
  37 C   6.0000    0    12.011  -16.425436   17.194454    4.690540
  38 C   6.0000    0    12.011  -17.944286   15.224570    5.434509
  39 C   6.0000    0    12.011  -16.357626   13.124910    5.804992
  40 C   6.0000    0    12.011   -9.317320   16.260246    4.553704
  41 C   6.0000    0    12.011   -6.765348   17.109528    4.530227
  42 C   6.0000    0    12.011   -5.288770   15.095428    5.228330
  43 C   6.0000    0    12.011   -6.925319   13.040503    5.640372
  44 N   7.0000    0    14.007  -13.976589   13.763006    5.361426
  45 N   7.0000    0    14.007   -9.294933   13.744212    5.263561
  46 B   5.0000    0    10.810  -11.648438   11.977296    5.225957
  47 F   9.0000    0    18.998  -11.605304   10.367866    7.223291
  48 F   9.0000    0    18.998  -11.700460   10.732279    2.949287
  49 H   1.0000    0     1.008   -3.274760   15.059710    5.430337
  50 H   1.0000    0     1.008   -6.479489   11.136301    6.179849
  51 H   1.0000    0     1.008   -6.132388   18.983378    4.104314
  52 H   1.0000    0     1.008  -17.002458   19.094409    4.272077
  53 H   1.0000    0     1.008  -19.951896   15.248239    5.693017

      -----------------------------------------------------------      
     |                   =====================                   |     
     |                           x T B                           |     
     |                   =====================                   |     
     |                         S. Grimme                         |     
     |          Mulliken Center for Theoretical Chemistry        |     
     |                    University of Bonn                     |     
      -----------------------------------------------------------      

   * xtb version 6.7.1 (edcfbbe) compiled by 'albert@albert-system' on 2024-07-22

   xtb is free software: you can redistribute it and/or modify it under
   the terms of the GNU Lesser General Public License as published by
   the Free Software Foundation, either version 3 of the License, or
   (at your option) any later version.
   
   xtb is distributed in the hope that it will be useful,
   but WITHOUT ANY WARRANTY; without even the implied warranty of
   MERCHANTABILITY or FITNESS FOR A PARTICULAR PURPOSE.  See the
   GNU Lesser General Public License for more details.
   
   Cite this work as:
   * C. Bannwarth, E. Caldeweyher, S. Ehlert, A. Hansen, P. Pracht,
     J. Seibert, S. Spicher, S. Grimme, WIREs Comput. Mol. Sci., 2020, 11,
     e01493. DOI: 10.1002/wcms.1493
   
   for GFN2-xTB:
   * C. Bannwarth, S. Ehlert and S. Grimme., J. Chem. Theory Comput., 2019,
     15, 1652-1671. DOI: 10.1021/acs.jctc.8b01176
   for GFN1-xTB:
   * S. Grimme, C. Bannwarth, P. Shushkov, J. Chem. Theory Comput., 2017,
     13, 1989-2009. DOI: 10.1021/acs.jctc.7b00118
   for GFN0-xTB:
   * P. Pracht, E. Caldeweyher, S. Ehlert, S. Grimme, ChemRxiv, 2019, preprint.
     DOI: 10.26434/chemrxiv.8326202.v1
   for GFN-FF:
   * S. Spicher and S. Grimme, Angew. Chem. Int. Ed., 2020, 59, 15665-15673.
     DOI: 10.1002/anie.202004239
   
   for ALPB and GBSA implicit solvation:
   * S. Ehlert, M. Stahn, S. Spicher, S. Grimme, J. Chem. Theory Comput.,
     2021, 17, 4250-4261. DOI: 10.1021/acs.jctc.1c00471
   
   for ddCOSMO and CPCM-X implicit solvation:
   * M. Stahn, S. Ehlert, S. Grimme, J. Phys. Chem. A,
     2023, XX, XXXX-XXXX. DOI: 10.1021/acs.jpca.3c04382
   
   for DFT-D4:
   * E. Caldeweyher, C. Bannwarth and S. Grimme, J. Chem. Phys., 2017,
     147, 034112. DOI: 10.1063/1.4993215
   * E. Caldeweyher, S. Ehlert, A. Hansen, H. Neugebauer, S. Spicher,
     C. Bannwarth and S. Grimme, J. Chem. Phys., 2019, 150, 154122.
     DOI: 10.1063/1.5090222
   * E. Caldeweyher, J.-M. Mewes, S. Ehlert and S. Grimme, Phys. Chem. Chem. Phys.
     2020, 22, 8499-8512. DOI: 10.1039/D0CP00502A
   
   for sTDA-xTB:
   * S. Grimme and C. Bannwarth, J. Chem. Phys., 2016, 145, 054103.
     DOI: 10.1063/1.4959605
   
   in the mass-spec context:
   * V. Asgeirsson, C. Bauer and S. Grimme, Chem. Sci., 2017, 8, 4879.
     DOI: 10.1039/c7sc00601b
   * J. Koopman and S. Grimme, ACS Omega 2019, 4, 12, 15120-15133.
     DOI: 10.1021/acsomega.9b02011
   
   for metadynamics refer to:
   * S. Grimme, J. Chem. Theory Comput., 2019, 155, 2847-2862
     DOI: 10.1021/acs.jctc.9b00143
   
   for SPH calculations refer to:
   * S. Spicher and S. Grimme, J. Chem. Theory Comput., 2021, 17, 1701-1714
     DOI: 10.1021/acs.jctc.0c01306
   
   for ONIOM refer to:
   * C. Plett, A. Katbashev, S. Ehlert, S. Grimme, M. Bursch,
     Phys. Chem. Chem. Phys., 2023, 25, 17860-17868. DOI: 10.1039/D3CP02178E
   
   for DIPRO refer to:
   * J. Kohn, N. Gildemeister, S. Grimme, D. Fazzi, A. Hansen,
     J. Chem. Phys., 2023, just accepted.
   
   for PTB refer to:
   * S. Grimme, M. Mueller, A. Hansen, J. Chem. Phys., 2023, 158, 124111.
     DOI: 10.1063/5.0137838
   
   with help from (in alphabetical order)
   P. Atkinson, C. Bannwarth, F. Bohle, G. Brandenburg, E. Caldeweyher
   M. Checinski, S. Dohm, S. Ehlert, S. Ehrlich, I. Gerasimov, C. Hölzer
   A. Katbashev, J. Kohn, J. Koopman, C. Lavigne, S. Lehtola, F. März, M. Müller,
   F. Musil, H. Neugebauer, J. Pisarek, C. Plett, P. Pracht, F. Pultar,
   J. Seibert, P. Shushkov, S. Spicher, M. Stahn, M. Steiner, T. Strunk,
   J. Stückrath, T. Rose, and J. Unsleber
   
 * started run on 2026/01/02 at 06:01:28.577     
   ID    Z sym.   atoms
    1   15 P      1
    2    6 C      2-19, 36-44
    3    1 H      20-35, 50-54
    4    7 N      45, 46
    5    5 B      47
    6    9 F      48, 49

           -------------------------------------------------
          |                Calculation Setup                |
           -------------------------------------------------

          program call               : otool_xtb TPP_Opt_XTB.xyz --grad -c 1 -u 0 -P 1 --namespace TPP_Opt --input TPP_Opt_XTB.input.tmp --acc 0.200000
          calculation namespace      : TPP_Opt
          coordinate file            : TPP_Opt_XTB.xyz
          omp threads                :                     1


           -------------------------------------------------
          |                 G F N 2 - x T B                 |
           -------------------------------------------------

        Reference                      10.1021/acs.jctc.8b01176
      * Hamiltonian:
        H0-scaling (s, p, d)           1.850000    2.230000    2.230000
        zeta-weighting                 0.500000
      * Dispersion:
        s8                             2.700000
        a1                             0.520000
        a2                             5.000000
        s9                             5.000000
      * Repulsion:
        kExp                           1.500000    1.000000
        rExp                           1.000000
      * Coulomb:
        alpha                          2.000000
        third order                    shell-resolved
        anisotropic                    true
        a3                             3.000000
        a5                             4.000000
        cn-shift                       1.200000
        cn-exp                         4.000000
        max-rad                        5.000000

q/qsh data taken from xtbrestart
CAMM data taken from xtbrestart

          ...................................................
          :                      SETUP                      :
          :.................................................:
          :  # basis functions                 159          :
          :  # atomic orbitals                 158          :
          :  # shells                           88          :
          :  # electrons                       160          :
          :  max. iterations                   250          :
          :  Hamiltonian                  GFN2-xTB          :
          :  restarted?                       true          :
          :  GBSA solvation                  false          :
          :  PC potential                    false          :
          :  electronic temp.          300.0000000     K    :
          :  accuracy                    0.2000000          :
          :  -> integral cutoff          0.3198970E+02      :
          :  -> integral neglect         0.2000000E-08      :
          :  -> SCF convergence          0.2000000E-06 Eh   :
          :  -> wf. convergence          0.2000000E-04 e    :
          :  Broyden damping             0.4000000          :
          :  net charge                          1          :
          :  unpaired electrons                  0          :
          ...................................................

 iter      E             dE          RMSdq      gap      omega  full diag
   1    -88.7438279 -0.887438E+02  0.284E-03    1.54       0.0  T
   2    -88.7438279  0.158258E-08  0.169E-03    1.54       8.1  T
   3    -88.7438278  0.110137E-06  0.122E-03    1.54      11.1  T
   4    -88.7438279 -0.114723E-06  0.135E-04    1.54     101.1  T
   5    -88.7438279 -0.941171E-09  0.489E-05    1.54     278.2  T

   *** convergence criteria satisfied after 5 iterations ***

         #    Occupation            Energy/Eh            Energy/eV
      -------------------------------------------------------------
         1        2.0000           -0.8630548             -23.4849
       ...           ...                  ...                  ...
        74        2.0000           -0.5399357             -14.6924
        75        2.0000           -0.5396873             -14.6856
        76        2.0000           -0.5384342             -14.6515
        77        2.0000           -0.5328313             -14.4991
        78        2.0000           -0.5311071             -14.4522
        79        2.0000           -0.5305157             -14.4361
        80        2.0000           -0.5058627             -13.7652 (HOMO)
        81                         -0.4492728             -12.2253 (LUMO)
        82                         -0.3882903             -10.5659
        83                         -0.3871164             -10.5340
        84                         -0.3719500             -10.1213
        85                         -0.3630030              -9.8778
       ...                                ...                  ...
       158                          0.8546660              23.2566
      -------------------------------------------------------------
                  HL-Gap            0.0565899 Eh            1.5399 eV
             Fermi-level           -0.4775678 Eh          -12.9953 eV

 SCC (total)                   0 d,  0 h,  0 min,  0.073 sec
 SCC setup                      ...        0 min,  0.000 sec (  0.494%)
 Dispersion                     ...        0 min,  0.001 sec (  1.092%)
 classical contributions        ...        0 min,  0.000 sec (  0.135%)
 integral evaluation            ...        0 min,  0.015 sec ( 21.149%)
 iterations                     ...        0 min,  0.016 sec ( 21.427%)
 molecular gradient             ...        0 min,  0.040 sec ( 55.149%)
 printout                       ...        0 min,  0.000 sec (  0.520%)

         :::::::::::::::::::::::::::::::::::::::::::::::::::::
         ::                     SUMMARY                     ::
         :::::::::::::::::::::::::::::::::::::::::::::::::::::
         :: total energy             -87.306932429600 Eh    ::
         :: gradient norm              0.000214544936 Eh/a0 ::
         :: HOMO-LUMO gap              1.539889974524 eV    ::
         ::.................................................::
         :: SCC energy               -88.741343468428 Eh    ::
         :: -> isotropic ES            0.148279259480 Eh    ::
         :: -> anisotropic ES         -0.017523265192 Eh    ::
         :: -> anisotropic XC          0.044866065331 Eh    ::
         :: -> dispersion             -0.078143165441 Eh    ::
         :: repulsion energy           1.434411038828 Eh    ::
         :: add. restraining           0.000000000000 Eh    ::
         :: total charge               1.000000000000 e     ::
         :::::::::::::::::::::::::::::::::::::::::::::::::::::


Property printout bound to 'properties.out'

           -------------------------------------------------
          | TOTAL ENERGY              -87.306932429600 Eh   |
          | GRADIENT NORM               0.000214544936 Eh/α |
          | HOMO-LUMO GAP               1.539889974524 eV   |
           -------------------------------------------------

------------------------------------------------------------------------
 * finished run on 2026/01/02 at 06:01:28.675     
------------------------------------------------------------------------
 total:
 * wall-time:     0 d,  0 h,  0 min,  0.098 sec
 *  cpu-time:     0 d,  0 h,  0 min,  0.097 sec
 * ratio c/w:     0.994 speedup
 SCF:
 * wall-time:     0 d,  0 h,  0 min,  0.073 sec
 *  cpu-time:     0 d,  0 h,  0 min,  0.073 sec
 * ratio c/w:     0.993 speedup


-------------------------   --------------------
FINAL SINGLE POINT ENERGY       -87.306932429600
-------------------------   --------------------


-------------
DIPOLE MOMENT
-------------
                                X             Y             Z
Total Dipole Moment    :    -11.87700      22.67700       2.72000
                        -----------------------------------------
Magnitude (a.u.)       :     25.74311
Magnitude (Debye)      :     65.43379

                                *** OPTIMIZATION RUN DONE ***


--------------------------------
SUGGESTED CITATIONS FOR THIS RUN
--------------------------------

Below you find a list of papers that are relevant to this ORCA run
We neither can nor want to force you to cite these papers, but we appreciate if you do
You receive ORCA, which is the product of decades of hard work by many enthusiastic individuals, for free
The only thing we kindly ask in return is that you cite our papers,
We deeply appreciate it, if you show your appreciation for ORCA by not just citing the generic ORCA reference.

Please note that relegating all ORCA citations to the supporting information does *not* help us.
SI sections are not indexed - citations you put there will not count into any citation statistics
But we need these citations in order to attract the funding resources that allow us to do what we are doing

Therefore, if you are a happy ORCA user, please consider citing a few of the papers listed below in the main body of your paper

In addition to the list printed below, the program has created the file TPP_Opt.bibtex that contains the list in bibtex format
You can import this file easily into all common literature databanks and citation aid programs


List of essential papers. We consider these as the minimum necessary citations

  1. Bannwarth, C.; Ehlert, S.; Grimme, S.
     GFN2-xTB—An Accurate and Broadly Parametrized Self-Consistent Tight-Binding Quantum Chemical Method with Multipole Electrostatics and Density-Dependent Dispersion Contributions
     J. Chem. Theory Comput. 2019 15(3), 1652-1671
     doi.org/10.1021/acs.jctc.8b01176
  2. Neese, F.
     Software update: the ORCA program system, version 6.0
     WIRES Comput. Molec. Sci. 2025 15(1), e70019
     doi.org/10.1002/wcms.7019

List of papers to cite with high priority. The work reported in these papers was absolutely
necessary for this run to complete.
Our perspective: the developers of density functionals and basis sets usually get cited in chemistry papers
Good! But without the algorithms to do something with them, the functionals or basis sets would not do anything.
Hence, in our opinion, the algorithm design and method developments papers are equally worthy of getting cited

  1. Bannwarth, C.; Caldeweyher, E.; Ehlert, S.; Hansen, A.; Pracht, P.; Seibert, J.; Spicher, S.; Grimme, S.
     Extended tight-binding quantum chemistry methods
     WIRES Comput. Molec. Sci. 2020 11(2), e1493
     doi.org/10.1002/wcms.1493

List of suggested additional citations. These are papers that are important in the 'surrounding' of 
of this run, or papers that preceded the highly important papers. If you like your results we are grateful for a citation.

  1. Neese, F.
     The ORCA program system
     WIRES Comput. Molec. Sci. 2012 2(1), 73-78
     doi.org/10.1002/wcms.81
  2. Neese, F.
     Software update: the ORCA program system, version 4.0
     WIRES Comput. Molec. Sci. 2018 8(1), 1-6
     doi.org/10.1002/wcms.1327
  3. Neese, F.; Wennmohs, F.; Becker, U.; Riplinger, C.
     The ORCA quantum chemistry program package
     J. Chem. Phys. 2020 152(22), 224108
     doi.org/10.1063/5.0004608
  4. Neese, F.
     Software update: The ORCA program system—Version 5.0
     WIRES Comput. Molec. Sci. 2022 12(1), e1606
     doi.org/10.1002/wcms.1606

List of optional additional citations

  1. Neese, F.
     Approximate second-order SCF convergence for spin unrestricted wavefunctions
     Chem. Phys. Lett. 2000 325(1-3), 93-98
     doi.org/10.1016/s0009-2614(00)00662-x

Timings for individual modules:

Sum of individual times          ...        0.287 sec (=   0.005 min)
Geometry relaxation              ...        0.046 sec (=   0.001 min)  15.9 %
XTB module                       ...        0.241 sec (=   0.004 min)  84.1 %
                             ****ORCA TERMINATED NORMALLY****
TOTAL RUN TIME: 0 days 0 hours 0 minutes 0 seconds 440 msec
