
                                 *****************
                                 * O   R   C   A *
                                 *****************

                                            #,                                       
                                            ###                                      
                                            ####                                     
                                            #####                                    
                                            ######                                   
                                           ########,                                 
                                     ,,################,,,,,                         
                               ,,#################################,,                 
                          ,,##########################################,,             
                       ,#########################################, ''#####,          
                    ,#############################################,,   '####,        
                  ,##################################################,,,,####,       
                ,###########''''           ''''###############################       
              ,#####''   ,,,,##########,,,,          '''####'''          '####       
            ,##' ,,,,###########################,,,                        '##       
           ' ,,###''''                  '''############,,,                           
         ,,##''                                '''############,,,,        ,,,,,,###''
      ,#''                                            '''#######################'''  
     '                                                          ''''####''''         
             ,#######,   #######,   ,#######,      ##                                
            ,#'     '#,  ##    ##  ,#'     '#,    #''#        ,####,    ,#,          
            ##       ##  ##   ,#'  ##            #'  '#       #'       ,# #          
            ##       ##  #######   ##           ,######,      #####,      #          
            '#,     ,#'  ##    ##  '#,     ,#' ,#      #,     #,   #      #          
             '#######'   ##     ##  '#######'  #'      '#     '####' #    #          



                #########################################################
                #                        -***-                          #
                #          Department of theory and spectroscopy        #
                #                                                       #
                #                      Frank Neese                      #
                #                                                       #
                #     Directorship, Architecture, Infrastructure        #
                #                    SHARK, DRIVERS                     #
                #        Core code/Algorithms in most modules           #
                #                                                       #
                #        Max Planck Institute fuer Kohlenforschung      #
                #                Kaiser Wilhelm Platz 1                 #
                #                 D-45470 Muelheim/Ruhr                 #
                #                      Germany                          #
                #                                                       #
                #                  All rights reserved                  #
                #                        -***-                          #
                #########################################################


                         Program Version 6.1.0  -  RELEASE   -
                                (GIT: $679e74b$)
                          ($2025-06-10 18:02:51 +0200$)


 With contributions from (in alphabetic order):
[Max-Planck-Institut fuer Kohlenforschung]                               
  Daniel Aravena         : Magnetic Suceptibility                        
  Michael Atanasov       : Ab Initio Ligand Field Theory (pilot matlab implementation)
  Alexander A. Auer      : GIAO ZORA, VPT2 properties, NMR spectrum      
  Ute Becker             : All parallelization in ORCA, NUMFREQ, NUMCALC 
  Giovanni Bistoni       : ED, misc. LED, open-shell LED, HFLD           
  Dmytro Bykov           : pre 5.0 version of the SCF Hessian            
  Marcos Casanova-Páez   : Triplet and SCS-CIS(D). UHF-(DLPNO)-IP/EA/STEOM-CCSD. UHF-CVS-IP/STEOM-CCSD   
  Vijay G. Chilkuri      : MRCI spin determinant printing, contributions to CSF-ICE 
  Pauline Colinet        : FMM embedding                                 
  Dipayan Datta          : RHF DLPNO-CCSD density                        
  Achintya Kumar Dutta   : EOM-CC, STEOM-CC                              
  Nicolas Foglia         : Exact transition moments, OPA infrastructure, MCD improvements    
  Dmitry Ganyushin       : Spin-Orbit,Spin-Spin,Magnetic field MRCI      
  Miquel Garcia-Rates    : C-PCM and meta-GGA Hessian, CCSD/C-PCM, Gaussian charge scheme 
  Tiago L. C. Gouveia    : GS-ROHF, GS-ROCIS                             
  Yang Guo               : DLPNO-NEVPT2, F12-NEVPT2, CIM, IAO-localization        
  Andreas Hansen         : Spin unrestricted coupled pair/coupled cluster methods 
  Ingolf Harden          : AUTO-CI MPn and infrastructure                
  Benjamin Helmich-Paris : MC-RPA, TRAH-(SCF,CASSCF), AVAS, COSX integrals, SCF dyn. polar., MC-PDFT, srDFT 
  Lee Huntington         : MR-EOM, pCC                                   
  Robert Izsak           : Overlap fitted RIJCOSX, COSX-SCS-MP3, EOM     
  Riya Kayal             : Wick's Theorem for AUTO-CI, AUTO-CI UHF-CCSDT 
  Emily Kempfer          : AUTO-CI RHF CISDT and CCSDT, approximate NEVPT4
  Christian Kollmar      : KDIIS, OOCD, Brueckner-CCSD(T), CCSD density, CASPT2, CASPT2-K, improved NEVPT2 
  Axel Koslowski         : Symmetry handling                             
  Simone Kossmann        : meta-GGA functionals, TD-DFT gradient, OOMP2, (MP2 Hessian; deprecated post 5.0) 
  Lucas Lang             : DCDCAS, Hyperfine gauge corrections, ICE-SOC+SSC
  Marvin Lechner         : AUTO-CI (C++ implementation), FIC-MRCC        
  Spencer Leger          : CASSCF response                               
  Dagmar Lenk            : GEPOL surface, SMD, ORCA-2-JSON               
  Dimitrios Liakos       : Extrapolation schemes; Compound Job, Property file
  Dimitrios Manganas     : Further ROCIS development; embedding schemes. LFT, Crystal Embedding 
  Dimitrios Pantazis     : SARC Basis sets                               
  Anastasios Papadopoulos: AUTO-CI, single reference methods and gradients 
  Taras Petrenko         : pre 6.0 DFT Hessian and TD-DFT gradient,  ECA, NRVS 
  Petra Pikulova         : Analytic Raman intensities                    
  Peter Pinski           : DLPNO-MP2, DLPNO-MP2 Gradient                 
  Shashank Vittal Rao    : ES-AILFT, MagRelax                            
  Christoph Reimann      : Effective Core Potentials                     
  Marius Retegan         : Local ZFS, SOC                                
  Christoph Riplinger    : Optimizer, TS searches, QM/MM, DLPNO-CCSD(T), (RO)-DLPNO pert. Triples 
  Michael Roemelt        : Original ROCIS implementation, recursive CI coupling coefficients
  Masaaki Saitow         : Open-shell DLPNO-CCSD energy and density      
  Barbara Sandhoefer     : DKH picture change effects                    
  Yorick L. A. Schmerwitz: GMF and freeze-and-release deltaSCF, NEB S-IDPP initial path                    
  Kantharuban Sivalingam : CASSCF convergence/infrastructure, NEVPT2, NEVPT3, NEVPT4(SD), FIC-MRCI and CEPA variants
  Bernardo de Souza      : ESD, SOC TD-DFT                               
  Georgi L. Stoychev     : AutoAux, RI-MP2 NMR, DLPNO-MP2 response, X2C  
  Van Anh Tran           : RI-MP2 g-tensors                              
  Willem Van den Heuvel  : Paramagnetic NMR                              
  Zikuan Wang            : NOTCH, Electric field optimization            
  Frank Wennmohs         : Technical directorship and infrastructure     
  Hang Xu                : AUTO-CI-Response properties                   
                                                                         
[FACCTs GmbH]                                                            
  Markus Bursch, Nicolas Foglia, Miquel Garcia-Rates, Ingolf Harden, Hagen Neugebauer, Anastasios Papadopoulos, 
  Christoph Riplinger, Bernardo de Souza, Georgi L. Stoychev                                                    
                                                                 
  APM, various basis sets, CI-OPT, improved COSX, DLPNO-Multilevel,           
  DOCKER, DRACO, updates on ESD, Fragmentator, GOAT, IRC, LR-CPCM, L-BFGS, MBIS, meta-GGA TD-DFT gradient, ML-optimized integration grids, 
  MM, NACMEs, nearIR, NEB, NEB-TS, NL-DFT gradient (VV10), 2- and 3-layer-ONIOM, interface openCOSMO-RS, QMMM,   
  Crystal-QMMM, RESP, rigid body optimization, SF, symmetry and pop. for TD-DFT, various functionals, SOLVATOR                                   
                                                                         
[Other institutions]                                                     
  V. Asgeirsson          : NEB                                           
  Christoph Bannwarth    : sTDA-DFT, sTD-DFT, PBEh-3c, B97-3c, D3        
  Giovanni Bistoni       : ETS/NOCV, ADLD/ADEX, COVALED                  
  Martin Brehm           : Molecular dynamics                            
  Ronald Cardenas        : ETS/NOCV                                      
  Martina Colucci        : COVALED                                       
  Sebastian Ehlert       : rSCAN, r2SCAN, r2SCAN-3c, D4, dhf basis sets  
  Marvin Friede          : D4 for Fr, Ra, Ac-Lr                          
  Lars Goerigk           : TD-DFT with DH, B97 family of functionals     
  Stefan Grimme          : VdW corrections, initial TS optimization, DFT functionals, gCP, sTDA/sTD-DF 
  Waldemar Hujo          : DFT-NL                                        
  H. Jonsson             : NEB                                           
  Holger Kruse           : gCP                                           
  Marcel Mueller         : wB97X-3c, vDZP basis set                      
  Hagen Neugebauer       : wr2SCAN, Native XTB                           
  Gianluca Regni         : ADLD/ADEX                                     
  Tobias Risthaus        : pre 6.0 range-separated hybrid DFT and stability analysis
  Lukas Wittmann         : regularized MP2, r2SCAN double-hybrids, wr2SCAN        
                                                                         
We gratefully acknowledge several colleagues who have allowed us to      
interface, adapt or use parts of their codes:                            
  Ed Valeev, F. Pavosevic, A. Kumar             : LibInt (2-el integral package), F12 methods 
  Garnet Chan, S. Sharma, J. Yang, R. Olivares  : DMRG                   
  Ulf Ekstrom                                   : XCFun DFT Library      
  Mihaly Kallay                                 : mrcc  (arbitrary order and MRCC methods)
  Frank Weinhold                                : gennbo (NPA and NBO analysis)           
  Simon Mueller                                 : openCOSMO-RS                            
  Christopher J. Cramer and Donald G. Truhlar   : smd solvation model                     
  S Lehtola, MJT Oliveira, MAL Marques          : LibXC Library                           
  Liviu Ungur et al                             : ANISO software                          


 Your calculation uses the libint2 library for the computation of 2-el integrals
 For citations please refer to: http://libint.valeyev.net

 Your ORCA version has been built with support for libXC version: 7.0.0
 For citations please refer to: https://libxc.gitlab.io

 This ORCA versions uses:
   CBLAS   interface :  Fast vector & matrix operations
   LAPACKE interface :  Fast linear algebra routines
   SCALAPACK package :  Parallel linear algebra routines
   Shared memory     :  Shared parallel matrices
   BLAS/LAPACK       :  OpenBLAS 0.3.29  USE64BITINT DYNAMIC_ARCH NO_AFFINITY Haswell SINGLE_THREADED
        Core in use  :  Haswell
   Copyright (c) 2011-2014, The OpenBLAS Project


  ***********************************
  * Starting time: Wed Oct 29 17:32:08 2025
  * Host name:     corine-kengne-Latitude-5491
  * Process ID:    78702
  * Working dir.:  /home/corine-kengne/Documents/Travaux M2/OPT_GFN2-xTB/BODIPY_base
  ***********************************

Your calculation utilizes the semiempirical GFN2-xTB method
Please cite in your paper:
Bannwarth, C.; Ehlert S.; Grimme, S. J. Chem. Theory Comput. 2019, 15, 1652.
   

================================================================================

================================================================================
                                        WARNINGS
                       Please study these warnings very carefully!
================================================================================


WARNING: Geometry Optimization
  ===> : Switching off AutoStart
         For restart on a previous wavefunction, please use MOREAD

WARNING: Found dipole moment calculation with XTB calculation
  ===> : Switching off dipole moment calculation


================================================================================
                                       INPUT FILE
================================================================================
NAME = Bodipy_Opt.inp
|  1> # ----------------------------------------------------
|  2> # OPTIMISATION DU PROTOTYPE 1 : BODIPY de base
|  3> # ----------------------------------------------------
|  4> ! OPT GFN2-xTB
|  5> 
|  6> # Définition des coordonnées du BODIPY de base
|  7> 
|  8> *xyz 0 1 Bod_xtb_opt.xyz
|  9> 
| 10>   C          -1.73967631878804      4.87181925127548     -0.32253605844571
| 11>   C          -2.93292785102963      4.17488312527892     -0.18048013821415
| 12>   C          -4.29317197769508      4.56625717032715     -0.06848559316602
| 13>   C          -4.99907902730088      3.44960515725439      0.31982252894957
| 14>   C          -4.06524515416144      2.40349726754923      0.42460933745098
| 15>   C          -0.51969338901086      4.22586102397995     -0.09097881257408
| 16>   C           0.77334737127927      4.71860234328552     -0.29780207657932
| 17>   C           1.66953240462842      3.70293975745927      0.03632098696355
| 18>   C           0.90089529120258      2.62561262507251      0.45685902018100
| 19>   N          -2.85906406657773      2.81463968332016      0.08146905482188
| 20>   N          -0.41672765766357      2.87682423490870      0.39231058760688
| 21>   B          -1.52131411363073      2.02795025477158     -0.20456310092442
| 22>   F          -1.70350503462524      0.77542645227539      0.38958832842934
| 23>   F          -1.23949097823637      1.82886851038091     -1.52850592838567
| 24>   H           2.73717436193573      3.77251822460755      0.00056155608712
| 25>   H           1.24898518500996      1.70457788816432      0.89211231884543
| 26>   H           1.02973828096841      5.69071579901423     -0.67464956635901
| 27>   H          -4.65845055851880      5.55961402428944     -0.23828838163100
| 28>   H          -6.05171025699935      3.40120376157825      0.51066526002464
| 29>   H          -4.24389975039540      1.37590766712682      0.68563228812426
| 30>   H          -1.73362376039126      5.91569477808028     -0.59160361120528
| 31> *
| 32> 
| 33>                          ****END OF INPUT****
================================================================================

                       *****************************
                       * Geometry Optimization Run *
                       *****************************

Geometry optimization settings:
Update method            Update   .... BFGS
Choice of coordinates    CoordSys .... (2022) Redundant Internals
Initial Hessian          InHess   .... Almloef's Model
Max. no of cycles        MaxIter  .... 63

Convergence Tolerances:
Energy Change            TolE     ....  5.0000e-06 Eh
Max. Gradient            TolMAXG  ....  3.0000e-04 Eh/bohr
RMS Gradient             TolRMSG  ....  1.0000e-04 Eh/bohr
Max. Displacement        TolMAXD  ....  4.0000e-03 bohr
RMS Displacement         TolRMSD  ....  2.0000e-03 bohr
Strict Convergence                .... False

------------------------------------------------------------------------------
                        ORCA OPTIMIZATION COORDINATE SETUP
------------------------------------------------------------------------------

The optimization will be done in redundant internal coordinates (2022)
Making redundant internal coordinates   ...  (2022 redundants) done
Evaluating the initial hessian          ...  (Almloef) done
Evaluating the coordinates              ...  done
Calculating the B-matrix                .... done
Calculating the G-matrix                .... done
The number of degrees of freedom        ....  120

    -----------------------------------------------------------------
                    Redundant Internal Coordinates


    -----------------------------------------------------------------
         Definition                    Initial Value    Approx d2E/dq
    -----------------------------------------------------------------
      1. B(C   1,C   0)                  1.3892         0.626741   
      2. B(C   2,C   1)                  1.4199         0.559901   
      3. B(C   3,C   2)                  1.3770         0.655472   
      4. B(C   4,C   3)                  1.4062         0.588722   
      5. B(C   5,C   0)                  1.3997         0.602862   
      6. B(C   6,C   5)                  1.3991         0.604220   
      7. B(C   7,C   6)                  1.3951         0.613157   
      8. B(C   8,C   7)                  1.3886         0.627952   
      9. B(N   9,C   4)                  1.3197         0.724445   
     10. B(N   9,C   1)                  1.3872         0.565374   
     11. B(N  10,C   8)                  1.3429         0.665283   
     12. B(N  10,C   5)                  1.4367         0.471399   
     13. B(B  11,N  10)                  1.5156         0.408650   
     14. B(B  11,N   9)                  1.5781         0.324831   
     15. B(F  12,B  11)                  1.3982         0.584341   
     16. B(F  13,B  11)                  1.3682         0.652554   
     17. B(H  14,C   7)                  1.0705         0.386836   
     18. B(H  15,C   8)                  1.0765         0.378367   
     19. B(H  16,C   6)                  1.0737         0.382372   
     20. B(H  17,C   2)                  1.0719         0.384825   
     21. B(H  18,C   3)                  1.0709         0.386295   
     22. B(H  19,C   4)                  1.0752         0.380262   
     23. B(H  20,C   0)                  1.0780         0.376313   
     24. A(C   1,C   0,C   5)          120.0150         0.432724   
     25. A(C   1,C   0,H  20)          121.0749         0.356206   
     26. A(C   5,C   0,H  20)          118.8993         0.353867   
     27. A(C   0,C   1,C   2)          133.8435         0.427020   
     28. A(C   0,C   1,N   9)          117.7439         0.424978   
     29. A(C   2,C   1,N   9)          107.8426         0.416511   
     30. A(C   1,C   2,C   3)          106.8486         0.430467   
     31. A(C   1,C   2,H  17)          124.7090         0.350794   
     32. A(C   3,C   2,H  17)          128.4253         0.360301   
     33. A(C   4,C   3,H  18)          127.2911         0.354013   
     34. A(C   2,C   3,C   4)          106.4908         0.434368   
     35. A(C   2,C   3,H  18)          126.2159         0.360535   
     36. A(C   3,C   4,N   9)          110.8436         0.439372   
     37. A(C   3,C   4,H  19)          128.2251         0.353071   
     38. A(N   9,C   4,H  19)          120.8468         0.363489   
     39. A(C   6,C   5,N  10)          108.3117         0.408775   
     40. A(C   0,C   5,N  10)          123.4664         0.408612   
     41. A(C   0,C   5,C   6)          128.2084         0.429889   
     42. A(C   5,C   6,C   7)          107.5703         0.431198   
     43. A(C   5,C   6,H  16)          126.2600         0.354962   
     44. A(C   7,C   6,H  16)          126.1440         0.355847   
     45. A(C   6,C   7,C   8)          106.3658         0.434195   
     46. A(C   8,C   7,H  14)          127.7766         0.357997   
     47. A(C   6,C   7,H  14)          125.8268         0.356549   
     48. A(N  10,C   8,H  15)          119.7842         0.357942   
     49. A(C   7,C   8,H  15)          127.3892         0.356652   
     50. A(C   7,C   8,N  10)          112.5453         0.437735   
     51. A(C   1,N   9,C   4)          107.8133         0.433320   
     52. A(C   4,N   9,B  11)          131.8059         0.396084   
     53. A(C   1,N   9,B  11)          119.9828         0.379327   
     54. A(C   5,N  10,C   8)          105.1971         0.413130   
     55. A(C   8,N  10,B  11)          128.9953         0.406284   
     56. A(C   5,N  10,B  11)          109.9510         0.382483   
     57. A(F  12,B  11,F  13)          107.9201         0.431557   
     58. A(N  10,B  11,F  13)          108.2081         0.406650   
     59. A(N   9,B  11,F  13)          114.9959         0.390567   
     60. A(N  10,B  11,F  12)          115.4266         0.398810   
     61. A(N   9,B  11,F  12)          105.0160         0.383124   
     62. A(N   9,B  11,N  10)          105.4998         0.361739   
     63. D(N   9,C   1,C   0,H  20)    175.8749         0.027217   
     64. D(N   9,C   1,C   0,C   5)     -5.3321         0.027217   
     65. D(C   2,C   1,C   0,C   5)    164.7947         0.027217   
     66. D(C   2,C   1,C   0,H  20)    -13.9983         0.027217   
     67. D(C   3,C   2,C   1,N   9)      2.7889         0.021473   
     68. D(H  17,C   2,C   1,N   9)   -178.6057         0.021473   
     69. D(H  17,C   2,C   1,C   0)     10.5678         0.021473   
     70. D(C   3,C   2,C   1,C   0)   -168.0376         0.021473   
     71. D(H  18,C   3,C   2,C   1)    178.9634         0.029950   
     72. D(H  18,C   3,C   2,H  17)      0.4268         0.029950   
     73. D(C   4,C   3,C   2,C   1)     -0.5230         0.029950   
     74. D(C   4,C   3,C   2,H  17)   -179.0596         0.029950   
     75. D(H  19,C   4,C   3,C   2)   -178.7080         0.023846   
     76. D(N   9,C   4,C   3,H  18)    178.4466         0.023846   
     77. D(N   9,C   4,C   3,C   2)     -2.0743         0.023846   
     78. D(H  19,C   4,C   3,H  18)      1.8128         0.023846   
     79. D(N  10,C   5,C   0,H  20)    173.9944         0.025068   
     80. D(N  10,C   5,C   0,C   1)     -4.8247         0.025068   
     81. D(C   6,C   5,C   0,H  20)     -7.5005         0.025068   
     82. D(C   6,C   5,C   0,C   1)    173.6804         0.025068   
     83. D(H  16,C   6,C   5,N  10)    178.6886         0.025187   
     84. D(H  16,C   6,C   5,C   0)      0.0021         0.025187   
     85. D(C   7,C   6,C   5,N  10)      0.4496         0.025187   
     86. D(C   7,C   6,C   5,C   0)   -178.2370         0.025187   
     87. D(H  14,C   7,C   6,H  16)      2.7766         0.025981   
     88. D(H  14,C   7,C   6,C   5)   -178.9818         0.025981   
     89. D(C   8,C   7,C   6,H  16)   -179.1187         0.025981   
     90. D(C   8,C   7,C   6,C   5)     -0.8770         0.025981   
     91. D(H  15,C   8,C   7,C   6)   -172.7828         0.027329   
     92. D(N  10,C   8,C   7,H  14)    179.1001         0.027329   
     93. D(N  10,C   8,C   7,C   6)      1.0443         0.027329   
     94. D(H  15,C   8,C   7,H  14)      5.2731         0.027329   
     95. D(B  11,N   9,C   4,H  19)      8.2182         0.043739   
     96. D(C   1,N   9,C   4,H  19)   -179.2407         0.043739   
     97. D(C   1,N   9,C   4,C   3)      3.8392         0.043739   
     98. D(B  11,N   9,C   1,C   2)    169.5041         0.025556   
     99. D(B  11,N   9,C   1,C   0)    -17.9608         0.025556   
    100. D(B  11,N   9,C   4,C   3)   -168.7019         0.043739   
    101. D(C   4,N   9,C   1,C   2)     -4.0817         0.025556   
    102. D(C   4,N   9,C   1,C   0)    168.4535         0.025556   
    103. D(B  11,N  10,C   8,H  15)    -53.9577         0.036271   
    104. D(C   5,N  10,C   8,H  15)    173.5978         0.036271   
    105. D(C   5,N  10,C   8,C   7)     -0.7529         0.036271   
    106. D(B  11,N  10,C   5,C   6)   -142.2294         0.017518   
    107. D(B  11,N  10,C   5,C   0)     36.5334         0.017518   
    108. D(B  11,N  10,C   8,C   7)    131.6917         0.036271   
    109. D(C   8,N  10,C   5,C   6)      0.1713         0.017518   
    110. D(C   8,N  10,C   5,C   0)    178.9341         0.017518   
    111. D(F  13,B  11,N  10,C   5)     71.6748         0.011817   
    112. D(F  12,B  11,N  10,C   8)     61.9266         0.011817   
    113. D(F  12,B  11,N  10,C   5)   -167.3258         0.011817   
    114. D(N   9,B  11,N  10,C   8)    177.3652         0.011817   
    115. D(N   9,B  11,N  10,C   5)    -51.8872         0.011817   
    116. D(F  13,B  11,N   9,C   1)    -72.1800         0.010000   
    117. D(F  12,B  11,N   9,C   4)    -18.8440         0.010000   
    118. D(F  12,B  11,N   9,C   1)    169.3594         0.010000   
    119. D(N  10,B  11,N   9,C   4)   -141.2355         0.010000   
    120. D(N  10,B  11,N   9,C   1)     46.9678         0.010000   
    -----------------------------------------------------------------

Number of atoms                         .... 21
Number of degrees of freedom            .... 120


         *************************************************************
         *                GEOMETRY OPTIMIZATION CYCLE   1            *
         *************************************************************
---------------------------------
CARTESIAN COORDINATES (ANGSTROEM)
---------------------------------
  C    -1.739676    4.871819   -0.322536
  C    -2.932928    4.174883   -0.180480
  C    -4.293172    4.566257   -0.068486
  C    -4.999079    3.449605    0.319823
  C    -4.065245    2.403497    0.424609
  C    -0.519693    4.225861   -0.090979
  C     0.773347    4.718602   -0.297802
  C     1.669532    3.702940    0.036321
  C     0.900895    2.625613    0.456859
  N    -2.859064    2.814640    0.081469
  N    -0.416728    2.876824    0.392311
  B    -1.521314    2.027950   -0.204563
  F    -1.703505    0.775426    0.389588
  F    -1.239491    1.828869   -1.528506
  H     2.737174    3.772518    0.000562
  H     1.248985    1.704578    0.892112
  H     1.029738    5.690716   -0.674650
  H    -4.658451    5.559614   -0.238288
  H    -6.051710    3.401204    0.510665
  H    -4.243900    1.375908    0.685632
  H    -1.733624    5.915695   -0.591604

----------------------------
CARTESIAN COORDINATES (A.U.)
----------------------------
  NO LB    ZA    FRAG    MASS        X           Y           Z
   0 C   6.0000    0    12.011   -3.287512    9.206404   -0.609505
   1 C   6.0000    0    12.011   -5.542430    7.889386   -0.341058
   2 C   6.0000    0    12.011   -8.112919    8.628976   -0.129419
   3 C   6.0000    0    12.011   -9.446890    6.518809    0.604377
   4 C   6.0000    0    12.011   -7.682200    4.541952    0.802395
   5 C   6.0000    0    12.011   -0.982078    7.985720   -0.171925
   6 C   6.0000    0    12.011    1.461415    8.916866   -0.562764
   7 C   6.0000    0    12.011    3.154959    6.997542    0.068637
   8 C   6.0000    0    12.011    1.702445    4.961689    0.863338
   9 N   7.0000    0    14.007   -5.402848    5.318898    0.153954
  10 N   7.0000    0    14.007   -0.787501    5.436410    0.741360
  11 B   5.0000    0    10.810   -2.874867    3.832271   -0.386568
  12 F   9.0000    0    18.998   -3.219158    1.465344    0.736215
  13 F   9.0000    0    18.998   -2.342298    3.456061   -2.888458
  14 H   1.0000    0     1.008    5.172510    7.129026    0.001061
  15 H   1.0000    0     1.008    2.360240    3.221185    1.685848
  16 H   1.0000    0     1.008    1.945923   10.753894   -1.274903
  17 H   1.0000    0     1.008   -8.803196   10.506148   -0.450300
  18 H   1.0000    0     1.008  -11.436075    6.427344    0.965017
  19 H   1.0000    0     1.008   -8.019808    2.600089    1.295657
  20 H   1.0000    0     1.008   -3.276074   11.179043   -1.117969

      -----------------------------------------------------------      
     |                   =====================                   |     
     |                           x T B                           |     
     |                   =====================                   |     
     |                         S. Grimme                         |     
     |          Mulliken Center for Theoretical Chemistry        |     
     |                    University of Bonn                     |     
      -----------------------------------------------------------      

   * xtb version 6.7.1 (edcfbbe) compiled by 'albert@albert-system' on 2024-07-22

   xtb is free software: you can redistribute it and/or modify it under
   the terms of the GNU Lesser General Public License as published by
   the Free Software Foundation, either version 3 of the License, or
   (at your option) any later version.
   
   xtb is distributed in the hope that it will be useful,
   but WITHOUT ANY WARRANTY; without even the implied warranty of
   MERCHANTABILITY or FITNESS FOR A PARTICULAR PURPOSE.  See the
   GNU Lesser General Public License for more details.
   
   Cite this work as:
   * C. Bannwarth, E. Caldeweyher, S. Ehlert, A. Hansen, P. Pracht,
     J. Seibert, S. Spicher, S. Grimme, WIREs Comput. Mol. Sci., 2020, 11,
     e01493. DOI: 10.1002/wcms.1493
   
   for GFN2-xTB:
   * C. Bannwarth, S. Ehlert and S. Grimme., J. Chem. Theory Comput., 2019,
     15, 1652-1671. DOI: 10.1021/acs.jctc.8b01176
   for GFN1-xTB:
   * S. Grimme, C. Bannwarth, P. Shushkov, J. Chem. Theory Comput., 2017,
     13, 1989-2009. DOI: 10.1021/acs.jctc.7b00118
   for GFN0-xTB:
   * P. Pracht, E. Caldeweyher, S. Ehlert, S. Grimme, ChemRxiv, 2019, preprint.
     DOI: 10.26434/chemrxiv.8326202.v1
   for GFN-FF:
   * S. Spicher and S. Grimme, Angew. Chem. Int. Ed., 2020, 59, 15665-15673.
     DOI: 10.1002/anie.202004239
   
   for ALPB and GBSA implicit solvation:
   * S. Ehlert, M. Stahn, S. Spicher, S. Grimme, J. Chem. Theory Comput.,
     2021, 17, 4250-4261. DOI: 10.1021/acs.jctc.1c00471
   
   for ddCOSMO and CPCM-X implicit solvation:
   * M. Stahn, S. Ehlert, S. Grimme, J. Phys. Chem. A,
     2023, XX, XXXX-XXXX. DOI: 10.1021/acs.jpca.3c04382
   
   for DFT-D4:
   * E. Caldeweyher, C. Bannwarth and S. Grimme, J. Chem. Phys., 2017,
     147, 034112. DOI: 10.1063/1.4993215
   * E. Caldeweyher, S. Ehlert, A. Hansen, H. Neugebauer, S. Spicher,
     C. Bannwarth and S. Grimme, J. Chem. Phys., 2019, 150, 154122.
     DOI: 10.1063/1.5090222
   * E. Caldeweyher, J.-M. Mewes, S. Ehlert and S. Grimme, Phys. Chem. Chem. Phys.
     2020, 22, 8499-8512. DOI: 10.1039/D0CP00502A
   
   for sTDA-xTB:
   * S. Grimme and C. Bannwarth, J. Chem. Phys., 2016, 145, 054103.
     DOI: 10.1063/1.4959605
   
   in the mass-spec context:
   * V. Asgeirsson, C. Bauer and S. Grimme, Chem. Sci., 2017, 8, 4879.
     DOI: 10.1039/c7sc00601b
   * J. Koopman and S. Grimme, ACS Omega 2019, 4, 12, 15120-15133.
     DOI: 10.1021/acsomega.9b02011
   
   for metadynamics refer to:
   * S. Grimme, J. Chem. Theory Comput., 2019, 155, 2847-2862
     DOI: 10.1021/acs.jctc.9b00143
   
   for SPH calculations refer to:
   * S. Spicher and S. Grimme, J. Chem. Theory Comput., 2021, 17, 1701-1714
     DOI: 10.1021/acs.jctc.0c01306
   
   for ONIOM refer to:
   * C. Plett, A. Katbashev, S. Ehlert, S. Grimme, M. Bursch,
     Phys. Chem. Chem. Phys., 2023, 25, 17860-17868. DOI: 10.1039/D3CP02178E
   
   for DIPRO refer to:
   * J. Kohn, N. Gildemeister, S. Grimme, D. Fazzi, A. Hansen,
     J. Chem. Phys., 2023, just accepted.
   
   for PTB refer to:
   * S. Grimme, M. Mueller, A. Hansen, J. Chem. Phys., 2023, 158, 124111.
     DOI: 10.1063/5.0137838
   
   with help from (in alphabetical order)
   P. Atkinson, C. Bannwarth, F. Bohle, G. Brandenburg, E. Caldeweyher
   M. Checinski, S. Dohm, S. Ehlert, S. Ehrlich, I. Gerasimov, C. Hölzer
   A. Katbashev, J. Kohn, J. Koopman, C. Lavigne, S. Lehtola, F. März, M. Müller,
   F. Musil, H. Neugebauer, J. Pisarek, C. Plett, P. Pracht, F. Pultar,
   J. Seibert, P. Shushkov, S. Spicher, M. Stahn, M. Steiner, T. Strunk,
   J. Stückrath, T. Rose, and J. Unsleber
   
 * started run on 2025/10/29 at 17:32:08.914     
   ID    Z sym.   atoms
    1    6 C      1-9
    2    7 N      10, 11
    3    5 B      12
    4    9 F      13, 14
    5    1 H      15-21

           -------------------------------------------------
          |                Calculation Setup                |
           -------------------------------------------------

          program call               : otool_xtb Bodipy_Opt_XTB.xyz --grad -c 0 -u 0 -P 1 --namespace Bodipy_Opt --input Bodipy_Opt_XTB.input.tmp --acc 0.200000
          calculation namespace      : Bodipy_Opt
          coordinate file            : Bodipy_Opt_XTB.xyz
          omp threads                :                     1


           -------------------------------------------------
          |                 G F N 2 - x T B                 |
           -------------------------------------------------

        Reference                      10.1021/acs.jctc.8b01176
      * Hamiltonian:
        H0-scaling (s, p, d)           1.850000    2.230000    2.230000
        zeta-weighting                 0.500000
      * Dispersion:
        s8                             2.700000
        a1                             0.520000
        a2                             5.000000
        s9                             5.000000
      * Repulsion:
        kExp                           1.500000    1.000000
        rExp                           1.000000
      * Coulomb:
        alpha                          2.000000
        third order                    shell-resolved
        anisotropic                    true
        a3                             3.000000
        a5                             4.000000
        cn-shift                       1.200000
        cn-exp                         4.000000
        max-rad                        5.000000


          ...................................................
          :                      SETUP                      :
          :.................................................:
          :  # basis functions                  63          :
          :  # atomic orbitals                  63          :
          :  # shells                           35          :
          :  # electrons                        70          :
          :  max. iterations                   250          :
          :  Hamiltonian                  GFN2-xTB          :
          :  restarted?                      false          :
          :  GBSA solvation                  false          :
          :  PC potential                    false          :
          :  electronic temp.          300.0000000     K    :
          :  accuracy                    0.2000000          :
          :  -> integral cutoff          0.3198970E+02      :
          :  -> integral neglect         0.2000000E-08      :
          :  -> SCF convergence          0.2000000E-06 Eh   :
          :  -> wf. convergence          0.2000000E-04 e    :
          :  Broyden damping             0.4000000          :
          :  net charge                          0          :
          :  unpaired electrons                  0          :
          ...................................................

 iter      E             dE          RMSdq      gap      omega  full diag
   1    -39.8523440 -0.398523E+02  0.554E+00    1.95       0.0  T
   2    -39.9900583 -0.137714E+00  0.376E+00    1.68       1.0  T
   3    -39.9836348  0.642354E-02  0.164E+00    1.91       1.0  T
   4    -40.0093795 -0.257448E-01  0.687E-01    1.69       1.0  T
   5    -40.0178805 -0.850092E-02  0.258E-01    1.78       1.0  T
   6    -40.0182703 -0.389841E-03  0.130E-01    1.75       1.0  T
   7    -40.0184052 -0.134908E-03  0.734E-02    1.77       1.0  T
   8    -40.0184963 -0.910344E-04  0.250E-02    1.76       1.0  T
   9    -40.0185096 -0.133095E-04  0.799E-03    1.76       2.7  T
  10    -40.0185098 -0.288991E-06  0.363E-03    1.76       6.0  T
  11    -40.0185100 -0.172704E-06  0.173E-03    1.76      12.6  T
  12    -40.0185100 -0.104536E-07  0.457E-04    1.76      47.8  T
  13    -40.0185100 -0.424810E-08  0.151E-04    1.76     144.4  T
  14    -40.0185100 -0.956675E-10  0.625E-05    1.76     349.3  T

   *** convergence criteria satisfied after 14 iterations ***

         #    Occupation            Energy/Eh            Energy/eV
      -------------------------------------------------------------
         1        2.0000           -0.7678488             -20.8942
       ...           ...                  ...                  ...
        29        2.0000           -0.4525239             -12.3138
        30        2.0000           -0.4460453             -12.1375
        31        2.0000           -0.4412727             -12.0076
        32        2.0000           -0.4339112             -11.8073
        33        2.0000           -0.4263227             -11.6008
        34        2.0000           -0.4226728             -11.5015
        35        2.0000           -0.3980109             -10.8304 (HOMO)
        36                         -0.3332085              -9.0671 (LUMO)
        37                         -0.2305585              -6.2738
        38                         -0.1960273              -5.3342
        39                         -0.1808613              -4.9215
        40                         -0.1417360              -3.8568
       ...                                ...                  ...
        63                          0.6826286              18.5753
      -------------------------------------------------------------
                  HL-Gap            0.0648024 Eh            1.7634 eV
             Fermi-level           -0.3656097 Eh           -9.9487 eV

 SCC (total)                   0 d,  0 h,  0 min,  0.020 sec
 SCC setup                      ...        0 min,  0.000 sec (  0.838%)
 Dispersion                     ...        0 min,  0.000 sec (  0.627%)
 classical contributions        ...        0 min,  0.000 sec (  0.111%)
 integral evaluation            ...        0 min,  0.003 sec ( 13.736%)
 iterations                     ...        0 min,  0.010 sec ( 49.974%)
 molecular gradient             ...        0 min,  0.007 sec ( 34.048%)
 printout                       ...        0 min,  0.000 sec (  0.563%)

         :::::::::::::::::::::::::::::::::::::::::::::::::::::
         ::                     SUMMARY                     ::
         :::::::::::::::::::::::::::::::::::::::::::::::::::::
         :: total energy             -39.511355428841 Eh    ::
         :: gradient norm              0.071240906910 Eh/a0 ::
         :: HOMO-LUMO gap              1.763363573752 eV    ::
         ::.................................................::
         :: SCC energy               -40.018466065614 Eh    ::
         :: -> isotropic ES            0.086222134345 Eh    ::
         :: -> anisotropic ES         -0.003384165625 Eh    ::
         :: -> anisotropic XC          0.011607569371 Eh    ::
         :: -> dispersion             -0.021320268911 Eh    ::
         :: repulsion energy           0.507110636773 Eh    ::
         :: add. restraining           0.000000000000 Eh    ::
         :: total charge              -0.000000000000 e     ::
         :::::::::::::::::::::::::::::::::::::::::::::::::::::


Property printout bound to 'properties.out'

           -------------------------------------------------
          | TOTAL ENERGY              -39.511355428841 Eh   |
          | GRADIENT NORM               0.071240906910 Eh/α |
          | HOMO-LUMO GAP               1.763363573752 eV   |
           -------------------------------------------------

------------------------------------------------------------------------
 * finished run on 2025/10/29 at 17:32:08.944     
------------------------------------------------------------------------
 total:
 * wall-time:     0 d,  0 h,  0 min,  0.029 sec
 *  cpu-time:     0 d,  0 h,  0 min,  0.028 sec
 * ratio c/w:     0.941 speedup
 SCF:
 * wall-time:     0 d,  0 h,  0 min,  0.020 sec
 *  cpu-time:     0 d,  0 h,  0 min,  0.018 sec
 * ratio c/w:     0.915 speedup


-------------------------   --------------------
FINAL SINGLE POINT ENERGY       -39.511355428840
-------------------------   --------------------


-------------
DIPOLE MOMENT
-------------
                                X             Y             Z
Total Dipole Moment    :     -0.13400       2.00300       0.55600
                        -----------------------------------------
Magnitude (a.u.)       :      2.08305
Magnitude (Debye)      :      5.29469


------------------
CARTESIAN GRADIENT
------------------

   1   C   :   -0.001660212    0.010661153   -0.001032693
   2   C   :   -0.004669883    0.000889791   -0.001031644
   3   C   :   -0.004323798   -0.000411710    0.000341548
   4   C   :   -0.005321562   -0.004594097   -0.000458577
   5   C   :    0.004540463    0.008421758    0.006038114
   6   C   :    0.005665042    0.012678217   -0.003153678
   7   C   :   -0.012630453    0.005681089   -0.002262302
   8   C   :    0.009315416   -0.013601740   -0.000632905
   9   C   :    0.006446789    0.007632049   -0.006457022
  10   N   :   -0.004609491   -0.006846640    0.004902604
  11   N   :   -0.015210878   -0.039291760    0.016739130
  12   B   :    0.020203782    0.027477543   -0.019210656
  13   F   :   -0.006706240   -0.008527442    0.000616737
  14   F   :    0.006293607   -0.005130485    0.004033368
  15   H   :   -0.000687889    0.002289139   -0.000857843
  16   H   :    0.001111552    0.001685354    0.004704033
  17   H   :    0.001583397   -0.000127829   -0.001092511
  18   H   :    0.000758870   -0.000197586   -0.000495443
  19   H   :    0.000047934    0.002202584   -0.001028121
  20   H   :   -0.000276501   -0.000360003    0.000567765
  21   H   :    0.000130055   -0.000529385   -0.000229905

Difference to translation invariance:
           :    0.0000000000    0.0000000000   -0.0000000000

Difference to rotation invariance:
           :    0.0000000264   -0.0000000102   -0.0000000668

Norm of the Cartesian gradient     ...    0.0712409069
RMS gradient                       ...    0.0089755106
MAX gradient                       ...    0.0392917596
------------------------------------------------------------------------------
                         ORCA GEOMETRY RELAXATION STEP
------------------------------------------------------------------------------

Reading the OPT-File                    .... done
Getting information on internals        .... done
Copying old internal coords+grads       .... done
Making the new internal coordinates     .... (2022 redundants) done
Validating the new internal coordinates .... (2022 redundants) done
Calculating the B-matrix                .... done
Calculating the G,G- and P matrices     .... done
Transforming gradient to internals      .... done
Projecting the internal gradient        .... done
Number of atoms                         ....  21
Number of internal coordinates          .... 120
Current Energy                          ....   -39.511355429 Eh
Current gradient norm                   ....     0.071240907 Eh/bohr
Maximum allowed component of the step   ....  0.300
Current trust radius                    ....  0.300
Evaluating the initial hessian          ....  (Almloef) done
Projecting the Hessian                  .... done
Forming the augmented Hessian           .... done
Diagonalizing the augmented Hessian     .... done
Last element of RFO vector              ....  0.939488068
Lowest eigenvalues of augmented Hessian:
 -0.009290800  0.020486365  0.024374530  0.024449402  0.024938322
Length of the computed step             ....  0.364647128
Warning: the length of the step is outside the trust region - taking restricted step instead
The input lambda is                     ....     0.018791
   iter:   5  x=    0.010557  g=  365.580418 f(x)=     1.278614
   iter:  10  x=   -0.018591  g=    3.632080 f(x)=     0.006000
The output lambda is                    ....    -0.018687 (14 iterations)
The final length of the internal step   ....  0.300000000
Converting the step to Cartesian space:
 Initial RMS(Int)=    0.0273861279
Transforming coordinates:
 Iter   0:  RMS(Cart)=    0.0474815843 RMS(Int)=    0.8087153041
 Iter   5:  RMS(Cart)=    0.0000000088 RMS(Int)=    0.0000000054
done
Storing new coordinates                 .... done

                                .--------------------.
          ----------------------|Geometry convergence|-------------------------
          Item                value                   Tolerance       Converged
          ---------------------------------------------------------------------
          RMS gradient        0.0038632011            0.0001000000      NO
          MAX gradient        0.0173228023            0.0003000000      NO
          RMS step            0.0273861279            0.0020000000      NO
          MAX step            0.1124428810            0.0040000000      NO
          -------------------------------------------------------------------------
          ........................................................
          Max(Bonds)      0.0239      Max(Angles)    2.58
          Max(Dihed)        6.44      Max(Improp)    0.00
          ---------------------------------------------------------------------

The optimization has not yet converged - more geometry cycles are needed


    ---------------------------------------------------------------------------
                         Redundant Internal Coordinates
                            (Angstroem and degrees)

        Definition                    Value    dE/dq     Step     New-Value
    ----------------------------------------------------------------------------
     1. B(C   1,C   0)                1.3892  0.005678 -0.0037    1.3855   
     2. B(C   2,C   1)                1.4199  0.003796 -0.0032    1.4166   
     3. B(C   3,C   2)                1.3770 -0.000090 -0.0004    1.3765   
     4. B(C   4,C   3)                1.4062  0.001230 -0.0016    1.4046   
     5. B(C   5,C   0)                1.3997  0.008328 -0.0087    1.3910   
     6. B(C   6,C   5)                1.3991 -0.003843  0.0036    1.4027   
     7. B(C   7,C   6)                1.3951  0.011483 -0.0082    1.3869   
     8. B(C   8,C   7)                1.3886 -0.000767  0.0011    1.3898   
     9. B(N   9,C   4)                1.3197  0.000231  0.0000    1.3197   
    10. B(N   9,C   1)                1.3872  0.004557 -0.0010    1.3862   
    11. B(N  10,C   8)                1.3429  0.006871 -0.0062    1.3367   
    12. B(N  10,C   5)                1.4367  0.017323 -0.0239    1.4128   
    13. B(B  11,N  10)                1.5156 -0.013384  0.0178    1.5333   
    14. B(B  11,N   9)                1.5781  0.010175 -0.0151    1.5630   
    15. B(F  12,B  11)                1.3982  0.008775 -0.0077    1.3905   
    16. B(F  13,B  11)                1.3682 -0.001860  0.0015    1.3696   
    17. B(H  14,C   7)                1.0705 -0.000509  0.0007    1.0712   
    18. B(H  15,C   8)                1.0765  0.000819 -0.0011    1.0754   
    19. B(H  16,C   6)                1.0737  0.000646 -0.0009    1.0728   
    20. B(H  17,C   2)                1.0719 -0.000363  0.0005    1.0724   
    21. B(H  18,C   3)                1.0709 -0.000330  0.0004    1.0713   
    22. B(H  19,C   4)                1.0752  0.000528 -0.0007    1.0745   
    23. B(H  20,C   0)                1.0780 -0.000455  0.0006    1.0786   
    24. A(C   1,C   0,C   5)          120.02 -0.003024    0.48    120.50   
    25. A(C   1,C   0,H  20)          121.07  0.001629   -0.27    120.80   
    26. A(C   5,C   0,H  20)          118.90  0.001404   -0.23    118.67   
    27. A(C   0,C   1,C   2)          133.84  0.001824   -0.65    133.20   
    28. A(C   0,C   1,N   9)          117.74 -0.001736    0.71    118.45   
    29. A(C   2,C   1,N   9)          107.84  0.000070   -0.12    107.72   
    30. A(C   1,C   2,C   3)          106.85  0.001013   -0.00    106.84   
    31. A(C   1,C   2,H  17)          124.71 -0.001261    0.12    124.83   
    32. A(C   3,C   2,H  17)          128.43  0.000260   -0.11    128.31   
    33. A(C   4,C   3,H  18)          127.29  0.003466   -0.52    126.77   
    34. A(C   2,C   3,C   4)          106.49 -0.002144    0.32    106.81   
    35. A(C   2,C   3,H  18)          126.22 -0.001325    0.21    126.43   
    36. A(C   3,C   4,N   9)          110.84  0.004570   -0.44    110.40   
    37. A(C   3,C   4,H  19)          128.23 -0.002601    0.32    128.54   
    38. A(N   9,C   4,H  19)          120.85 -0.002027    0.22    121.07   
    39. A(C   6,C   5,N  10)          108.31 -0.001199    0.07    108.38   
    40. A(C   0,C   5,N  10)          123.47  0.001736   -0.60    122.87   
    41. A(C   0,C   5,C   6)          128.21 -0.000545    0.57    128.78   
    42. A(C   5,C   6,C   7)          107.57  0.001880   -0.26    107.31   
    43. A(C   5,C   6,H  16)          126.26  0.000567   -0.09    126.17   
    44. A(C   7,C   6,H  16)          126.14 -0.002444    0.37    126.52   
    45. A(C   6,C   7,C   8)          106.37  0.000349   -0.01    106.35   
    46. A(C   8,C   7,H  14)          127.78  0.002347   -0.37    127.41   
    47. A(C   6,C   7,H  14)          125.83 -0.002714    0.41    126.23   
    48. A(N  10,C   8,H  15)          119.78  0.000135    0.11    119.90   
    49. A(C   7,C   8,H  15)          127.39 -0.001277    0.35    127.74   
    50. A(C   7,C   8,N  10)          112.55  0.001241   -0.51    112.03   
    51. A(C   1,N   9,C   4)          107.81 -0.003602    0.46    108.27   
    52. A(C   4,N   9,B  11)          131.81  0.002684   -0.66    131.14   
    53. A(C   1,N   9,B  11)          119.98  0.000908    0.05    120.03   
    54. A(C   5,N  10,C   8)          105.20 -0.002293    0.74    105.94   
    55. A(C   8,N  10,B  11)          129.00  0.003116   -0.20    128.80   
    56. A(C   5,N  10,B  11)          109.95 -0.003890    2.11    112.06   
    57. A(F  12,B  11,F  13)          107.92 -0.004965    0.92    108.84   
    58. A(N  10,B  11,F  13)          108.21 -0.003129    0.26    108.47   
    59. A(N   9,B  11,F  13)          115.00  0.010555   -2.58    112.42   
    60. A(N  10,B  11,F  12)          115.43  0.001124   -0.59    114.84   
    61. A(N   9,B  11,F  12)          105.02 -0.004973    1.61    106.63   
    62. A(N   9,B  11,N  10)          105.50  0.002199    0.21    105.71   
    63. D(N   9,C   1,C   0,H  20)    175.87 -0.000482    1.15    177.02   
    64. D(N   9,C   1,C   0,C   5)     -5.33  0.000055    0.03     -5.30   
    65. D(C   2,C   1,C   0,C   5)    164.79  0.001357   -0.43    164.36   
    66. D(C   2,C   1,C   0,H  20)    -14.00  0.000820    0.68    -13.32   
    67. D(C   3,C   2,C   1,N   9)      2.79  0.000257   -1.22      1.57   
    68. D(H  17,C   2,C   1,N   9)   -178.61  0.000756   -1.08   -179.69   
    69. D(H  17,C   2,C   1,C   0)     10.57 -0.000301   -0.72      9.85   
    70. D(C   3,C   2,C   1,C   0)   -168.04 -0.000799   -0.86   -168.90   
    71. D(H  18,C   3,C   2,C   1)    178.96  0.000208    0.14    179.10   
    72. D(H  18,C   3,C   2,H  17)      0.43 -0.000287   -0.02      0.41   
    73. D(C   4,C   3,C   2,C   1)     -0.52  0.000565   -0.49     -1.01   
    74. D(C   4,C   3,C   2,H  17)   -179.06  0.000070   -0.64   -179.70   
    75. D(H  19,C   4,C   3,C   2)   -178.71 -0.000217    0.23   -178.48   
    76. D(N   9,C   4,C   3,H  18)    178.45 -0.000984    1.52    179.97   
    77. D(N   9,C   4,C   3,C   2)     -2.07 -0.001379    2.16      0.09   
    78. D(H  19,C   4,C   3,H  18)      1.81  0.000178   -0.41      1.40   
    79. D(N  10,C   5,C   0,H  20)    173.99  0.000712   -0.47    173.53   
    80. D(N  10,C   5,C   0,C   1)     -4.82  0.000183    0.63     -4.20   
    81. D(C   6,C   5,C   0,H  20)     -7.50  0.000248    1.63     -5.87   
    82. D(C   6,C   5,C   0,C   1)    173.68 -0.000281    2.72    176.40   
    83. D(H  16,C   6,C   5,N  10)    178.69 -0.001058    1.40    180.09   
    84. D(H  16,C   6,C   5,C   0)      0.00 -0.000686   -0.42     -0.42   
    85. D(C   7,C   6,C   5,N  10)      0.45 -0.001121    0.66      1.11   
    86. D(C   7,C   6,C   5,C   0)   -178.24 -0.000749   -1.17   -179.41   
    87. D(H  14,C   7,C   6,H  16)      2.78  0.000191   -0.97      1.81   
    88. D(H  14,C   7,C   6,C   5)   -178.98  0.000321   -0.24   -179.22   
    89. D(C   8,C   7,C   6,H  16)   -179.12 -0.000297   -0.17   -179.29   
    90. D(C   8,C   7,C   6,C   5)     -0.88 -0.000167    0.56     -0.31   
    91. D(H  15,C   8,C   7,C   6)   -172.78  0.000350   -1.18   -173.97   
    92. D(N  10,C   8,C   7,H  14)    179.10  0.000841   -0.87    178.23   
    93. D(N  10,C   8,C   7,C   6)      1.04  0.001470   -1.71     -0.67   
    94. D(H  15,C   8,C   7,H  14)      5.27 -0.000279   -0.34      4.93   
    95. D(B  11,N   9,C   4,H  19)      8.22  0.000482    0.25      8.47   
    96. D(C   1,N   9,C   4,H  19)   -179.24  0.000338   -1.15   -180.39   
    97. D(C   1,N   9,C   4,C   3)      3.84  0.001446   -2.93      0.91   
    98. D(B  11,N   9,C   1,C   2)    169.50 -0.000794    1.26    170.76   
    99. D(B  11,N   9,C   1,C   0)    -17.96  0.000413    0.84    -17.12   
   100. D(B  11,N   9,C   4,C   3)   -168.70  0.001590   -1.52   -170.22   
   101. D(C   4,N   9,C   1,C   2)     -4.08 -0.000881    2.54     -1.54   
   102. D(C   4,N   9,C   1,C   0)    168.45  0.000325    2.11    170.57   
   103. D(B  11,N  10,C   8,H  15)    -53.96 -0.007437    5.98    -47.98   
   104. D(C   5,N  10,C   8,H  15)    173.60 -0.001199    1.61    175.21   
   105. D(C   5,N  10,C   8,C   7)     -0.75 -0.002119    2.07      1.32   
   106. D(B  11,N  10,C   5,C   6)   -142.23  0.003296   -4.01   -146.24   
   107. D(B  11,N  10,C   5,C   0)     36.53  0.002911   -2.27     34.27   
   108. D(B  11,N  10,C   8,C   7)    131.69 -0.008357    6.44    138.13   
   109. D(C   8,N  10,C   5,C   6)      0.17  0.001932   -1.64     -1.47   
   110. D(C   8,N  10,C   5,C   0)    178.93  0.001548    0.10    179.03   
   111. D(F  13,B  11,N  10,C   5)     71.67  0.009033   -0.18     71.50   
   112. D(F  12,B  11,N  10,C   8)     61.93  0.006713   -3.16     58.76   
   113. D(F  12,B  11,N  10,C   5)   -167.33  0.001007    0.82   -166.51   
   114. D(N   9,B  11,N  10,C   8)    177.37  0.002649   -1.36    176.01   
   115. D(N   9,B  11,N  10,C   5)    -51.89 -0.003057    2.62    -49.26   
   116. D(F  13,B  11,N   9,C   1)    -72.18  0.002319   -2.31    -74.49   
   117. D(F  12,B  11,N   9,C   4)    -18.84  0.005529   -4.63    -23.48   
   118. D(F  12,B  11,N   9,C   1)    169.36  0.005930   -3.10    166.26   
   119. D(N  10,B  11,N   9,C   4)   -141.24  0.005632   -4.86   -146.10   
   120. D(N  10,B  11,N   9,C   1)     46.97  0.006033   -3.33     43.64   
    ----------------------------------------------------------------------------

Geometry step timings:
Preparation and reading OPT file:      0.000 s ( 0.540 %)
Internal coordinates            :      0.000 s ( 0.885 %)
B/P matrices and projection     :      0.001 s (25.318 %)
Hessian update/contruction      :      0.000 s (10.145 %)
Making the step                 :      0.002 s (38.873 %)
Converting the step to Cartesian:      0.000 s ( 3.173 %)
Storing new data                :      0.000 s ( 0.907 %)
Checking convergence            :      0.000 s ( 1.187 %)
Final printing                  :      0.001 s (18.951 %)
Total time                      :      0.005 s

Time for energy+gradient        :      0.034 s
Time for complete geometry iter :      0.041 s

         *************************************************************
         *                GEOMETRY OPTIMIZATION CYCLE   2            *
         *************************************************************
---------------------------------
CARTESIAN COORDINATES (ANGSTROEM)
---------------------------------
  C    -1.732081    4.855490   -0.342262
  C    -2.920700    4.160796   -0.185837
  C    -4.272113    4.566757   -0.060386
  C    -4.988949    3.454600    0.319468
  C    -4.075960    2.389970    0.396544
  C    -0.511878    4.225968   -0.119109
  C     0.783806    4.735425   -0.289916
  C     1.672084    3.725989    0.049797
  C     0.898379    2.633869    0.424109
  N    -2.861297    2.803053    0.087473
  N    -0.409899    2.898786    0.353986
  B    -1.540979    2.009785   -0.176750
  F    -1.674468    0.786439    0.470672
  F    -1.325844    1.783648   -1.510345
  H     2.741079    3.793492    0.040140
  H     1.234684    1.698719    0.835156
  H     1.036911    5.718725   -0.636303
  H    -4.628674    5.565810   -0.217864
  H    -6.041285    3.412478    0.515772
  H    -4.266435    1.360962    0.640158
  H    -1.734287    5.902258   -0.602444

----------------------------
CARTESIAN COORDINATES (A.U.)
----------------------------
  NO LB    ZA    FRAG    MASS        X           Y           Z
   0 C   6.0000    0    12.011   -3.273159    9.175546   -0.646782
   1 C   6.0000    0    12.011   -5.519323    7.862766   -0.351182
   2 C   6.0000    0    12.011   -8.073123    8.629921   -0.114113
   3 C   6.0000    0    12.011   -9.427748    6.528247    0.603706
   4 C   6.0000    0    12.011   -7.702448    4.516388    0.749359
   5 C   6.0000    0    12.011   -0.967309    7.985922   -0.225083
   6 C   6.0000    0    12.011    1.481178    8.948656   -0.547863
   7 C   6.0000    0    12.011    3.159780    7.041098    0.094103
   8 C   6.0000    0    12.011    1.697689    4.977291    0.801449
   9 N   7.0000    0    14.007   -5.407068    5.297003    0.165301
  10 N   7.0000    0    14.007   -0.774597    5.477912    0.668937
  11 B   5.0000    0    10.810   -2.912029    3.797944   -0.334009
  12 F   9.0000    0    18.998   -3.164286    1.486154    0.889442
  13 F   9.0000    0    18.998   -2.505483    3.370606   -2.854139
  14 H   1.0000    0     1.008    5.179888    7.168662    0.075853
  15 H   1.0000    0     1.008    2.333214    3.210114    1.578217
  16 H   1.0000    0     1.008    1.959478   10.806824   -1.202438
  17 H   1.0000    0     1.008   -8.746925   10.517856   -0.411704
  18 H   1.0000    0     1.008  -11.416374    6.448649    0.974668
  19 H   1.0000    0     1.008   -8.062395    2.571846    1.209724
  20 H   1.0000    0     1.008   -3.277327   11.153651   -1.138455

      -----------------------------------------------------------      
     |                   =====================                   |     
     |                           x T B                           |     
     |                   =====================                   |     
     |                         S. Grimme                         |     
     |          Mulliken Center for Theoretical Chemistry        |     
     |                    University of Bonn                     |     
      -----------------------------------------------------------      

   * xtb version 6.7.1 (edcfbbe) compiled by 'albert@albert-system' on 2024-07-22

   xtb is free software: you can redistribute it and/or modify it under
   the terms of the GNU Lesser General Public License as published by
   the Free Software Foundation, either version 3 of the License, or
   (at your option) any later version.
   
   xtb is distributed in the hope that it will be useful,
   but WITHOUT ANY WARRANTY; without even the implied warranty of
   MERCHANTABILITY or FITNESS FOR A PARTICULAR PURPOSE.  See the
   GNU Lesser General Public License for more details.
   
   Cite this work as:
   * C. Bannwarth, E. Caldeweyher, S. Ehlert, A. Hansen, P. Pracht,
     J. Seibert, S. Spicher, S. Grimme, WIREs Comput. Mol. Sci., 2020, 11,
     e01493. DOI: 10.1002/wcms.1493
   
   for GFN2-xTB:
   * C. Bannwarth, S. Ehlert and S. Grimme., J. Chem. Theory Comput., 2019,
     15, 1652-1671. DOI: 10.1021/acs.jctc.8b01176
   for GFN1-xTB:
   * S. Grimme, C. Bannwarth, P. Shushkov, J. Chem. Theory Comput., 2017,
     13, 1989-2009. DOI: 10.1021/acs.jctc.7b00118
   for GFN0-xTB:
   * P. Pracht, E. Caldeweyher, S. Ehlert, S. Grimme, ChemRxiv, 2019, preprint.
     DOI: 10.26434/chemrxiv.8326202.v1
   for GFN-FF:
   * S. Spicher and S. Grimme, Angew. Chem. Int. Ed., 2020, 59, 15665-15673.
     DOI: 10.1002/anie.202004239
   
   for ALPB and GBSA implicit solvation:
   * S. Ehlert, M. Stahn, S. Spicher, S. Grimme, J. Chem. Theory Comput.,
     2021, 17, 4250-4261. DOI: 10.1021/acs.jctc.1c00471
   
   for ddCOSMO and CPCM-X implicit solvation:
   * M. Stahn, S. Ehlert, S. Grimme, J. Phys. Chem. A,
     2023, XX, XXXX-XXXX. DOI: 10.1021/acs.jpca.3c04382
   
   for DFT-D4:
   * E. Caldeweyher, C. Bannwarth and S. Grimme, J. Chem. Phys., 2017,
     147, 034112. DOI: 10.1063/1.4993215
   * E. Caldeweyher, S. Ehlert, A. Hansen, H. Neugebauer, S. Spicher,
     C. Bannwarth and S. Grimme, J. Chem. Phys., 2019, 150, 154122.
     DOI: 10.1063/1.5090222
   * E. Caldeweyher, J.-M. Mewes, S. Ehlert and S. Grimme, Phys. Chem. Chem. Phys.
     2020, 22, 8499-8512. DOI: 10.1039/D0CP00502A
   
   for sTDA-xTB:
   * S. Grimme and C. Bannwarth, J. Chem. Phys., 2016, 145, 054103.
     DOI: 10.1063/1.4959605
   
   in the mass-spec context:
   * V. Asgeirsson, C. Bauer and S. Grimme, Chem. Sci., 2017, 8, 4879.
     DOI: 10.1039/c7sc00601b
   * J. Koopman and S. Grimme, ACS Omega 2019, 4, 12, 15120-15133.
     DOI: 10.1021/acsomega.9b02011
   
   for metadynamics refer to:
   * S. Grimme, J. Chem. Theory Comput., 2019, 155, 2847-2862
     DOI: 10.1021/acs.jctc.9b00143
   
   for SPH calculations refer to:
   * S. Spicher and S. Grimme, J. Chem. Theory Comput., 2021, 17, 1701-1714
     DOI: 10.1021/acs.jctc.0c01306
   
   for ONIOM refer to:
   * C. Plett, A. Katbashev, S. Ehlert, S. Grimme, M. Bursch,
     Phys. Chem. Chem. Phys., 2023, 25, 17860-17868. DOI: 10.1039/D3CP02178E
   
   for DIPRO refer to:
   * J. Kohn, N. Gildemeister, S. Grimme, D. Fazzi, A. Hansen,
     J. Chem. Phys., 2023, just accepted.
   
   for PTB refer to:
   * S. Grimme, M. Mueller, A. Hansen, J. Chem. Phys., 2023, 158, 124111.
     DOI: 10.1063/5.0137838
   
   with help from (in alphabetical order)
   P. Atkinson, C. Bannwarth, F. Bohle, G. Brandenburg, E. Caldeweyher
   M. Checinski, S. Dohm, S. Ehlert, S. Ehrlich, I. Gerasimov, C. Hölzer
   A. Katbashev, J. Kohn, J. Koopman, C. Lavigne, S. Lehtola, F. März, M. Müller,
   F. Musil, H. Neugebauer, J. Pisarek, C. Plett, P. Pracht, F. Pultar,
   J. Seibert, P. Shushkov, S. Spicher, M. Stahn, M. Steiner, T. Strunk,
   J. Stückrath, T. Rose, and J. Unsleber
   
 * started run on 2025/10/29 at 17:32:08.955     
   ID    Z sym.   atoms
    1    6 C      1-9
    2    7 N      10, 11
    3    5 B      12
    4    9 F      13, 14
    5    1 H      15-21

           -------------------------------------------------
          |                Calculation Setup                |
           -------------------------------------------------

          program call               : otool_xtb Bodipy_Opt_XTB.xyz --grad -c 0 -u 0 -P 1 --namespace Bodipy_Opt --input Bodipy_Opt_XTB.input.tmp --acc 0.200000
          calculation namespace      : Bodipy_Opt
          coordinate file            : Bodipy_Opt_XTB.xyz
          omp threads                :                     1


           -------------------------------------------------
          |                 G F N 2 - x T B                 |
           -------------------------------------------------

        Reference                      10.1021/acs.jctc.8b01176
      * Hamiltonian:
        H0-scaling (s, p, d)           1.850000    2.230000    2.230000
        zeta-weighting                 0.500000
      * Dispersion:
        s8                             2.700000
        a1                             0.520000
        a2                             5.000000
        s9                             5.000000
      * Repulsion:
        kExp                           1.500000    1.000000
        rExp                           1.000000
      * Coulomb:
        alpha                          2.000000
        third order                    shell-resolved
        anisotropic                    true
        a3                             3.000000
        a5                             4.000000
        cn-shift                       1.200000
        cn-exp                         4.000000
        max-rad                        5.000000

q/qsh data taken from xtbrestart
CAMM data taken from xtbrestart

          ...................................................
          :                      SETUP                      :
          :.................................................:
          :  # basis functions                  63          :
          :  # atomic orbitals                  63          :
          :  # shells                           35          :
          :  # electrons                        70          :
          :  max. iterations                   250          :
          :  Hamiltonian                  GFN2-xTB          :
          :  restarted?                       true          :
          :  GBSA solvation                  false          :
          :  PC potential                    false          :
          :  electronic temp.          300.0000000     K    :
          :  accuracy                    0.2000000          :
          :  -> integral cutoff          0.3198970E+02      :
          :  -> integral neglect         0.2000000E-08      :
          :  -> SCF convergence          0.2000000E-06 Eh   :
          :  -> wf. convergence          0.2000000E-04 e    :
          :  Broyden damping             0.4000000          :
          :  net charge                          0          :
          :  unpaired electrons                  0          :
          ...................................................

 iter      E             dE          RMSdq      gap      omega  full diag
   1    -40.0334265 -0.400334E+02  0.226E-01    1.79       0.0  T
   2    -40.0335020 -0.754776E-04  0.138E-01    1.79       1.0  T
   3    -40.0334658  0.361869E-04  0.771E-02    1.79       1.0  T
   4    -40.0335280 -0.621843E-04  0.281E-02    1.79       1.0  T
   5    -40.0335445 -0.165720E-04  0.913E-03    1.79       2.4  T
   6    -40.0335458 -0.131523E-05  0.430E-03    1.79       5.1  T
   7    -40.0335460 -0.147167E-06  0.174E-03    1.79      12.6  T
   8    -40.0335460 -0.316538E-07  0.735E-04    1.79      29.7  T
   9    -40.0335460 -0.132390E-08  0.362E-04    1.79      60.3  T
  10    -40.0335460 -0.240416E-08  0.807E-05    1.79     270.4  T
  11    -40.0335460 -0.446363E-10  0.323E-05    1.79     676.6  T

   *** convergence criteria satisfied after 11 iterations ***

         #    Occupation            Energy/Eh            Energy/eV
      -------------------------------------------------------------
         1        2.0000           -0.7679385             -20.8967
       ...           ...                  ...                  ...
        29        2.0000           -0.4537793             -12.3480
        30        2.0000           -0.4468817             -12.1603
        31        2.0000           -0.4434567             -12.0671
        32        2.0000           -0.4339703             -11.8089
        33        2.0000           -0.4264240             -11.6036
        34        2.0000           -0.4242237             -11.5437
        35        2.0000           -0.3982599             -10.8372 (HOMO)
        36                         -0.3325738              -9.0498 (LUMO)
        37                         -0.2269448              -6.1755
        38                         -0.1943557              -5.2887
        39                         -0.1796504              -4.8885
        40                         -0.1387521              -3.7756
       ...                                ...                  ...
        63                          0.6892561              18.7556
      -------------------------------------------------------------
                  HL-Gap            0.0656861 Eh            1.7874 eV
             Fermi-level           -0.3654169 Eh           -9.9435 eV

 SCC (total)                   0 d,  0 h,  0 min,  0.025 sec
 SCC setup                      ...        0 min,  0.000 sec (  0.849%)
 Dispersion                     ...        0 min,  0.000 sec (  0.644%)
 classical contributions        ...        0 min,  0.000 sec (  0.112%)
 integral evaluation            ...        0 min,  0.003 sec ( 13.661%)
 iterations                     ...        0 min,  0.010 sec ( 40.928%)
 molecular gradient             ...        0 min,  0.011 sec ( 42.953%)
 printout                       ...        0 min,  0.000 sec (  0.729%)

         :::::::::::::::::::::::::::::::::::::::::::::::::::::
         ::                     SUMMARY                     ::
         :::::::::::::::::::::::::::::::::::::::::::::::::::::
         :: total energy             -39.518194996057 Eh    ::
         :: gradient norm              0.050148451129 Eh/a0 ::
         :: HOMO-LUMO gap              1.787409520935 eV    ::
         ::.................................................::
         :: SCC energy               -40.033502634821 Eh    ::
         :: -> isotropic ES            0.085367006240 Eh    ::
         :: -> anisotropic ES         -0.003254918941 Eh    ::
         :: -> anisotropic XC          0.011306174433 Eh    ::
         :: -> dispersion             -0.021326264937 Eh    ::
         :: repulsion energy           0.515307638764 Eh    ::
         :: add. restraining           0.000000000000 Eh    ::
         :: total charge               0.000000000000 e     ::
         :::::::::::::::::::::::::::::::::::::::::::::::::::::


Property printout bound to 'properties.out'

           -------------------------------------------------
          | TOTAL ENERGY              -39.518194996057 Eh   |
          | GRADIENT NORM               0.050148451129 Eh/α |
          | HOMO-LUMO GAP               1.787409520935 eV   |
           -------------------------------------------------

------------------------------------------------------------------------
 * finished run on 2025/10/29 at 17:32:08.993     
------------------------------------------------------------------------
 total:
 * wall-time:     0 d,  0 h,  0 min,  0.037 sec
 *  cpu-time:     0 d,  0 h,  0 min,  0.036 sec
 * ratio c/w:     0.978 speedup
 SCF:
 * wall-time:     0 d,  0 h,  0 min,  0.025 sec
 *  cpu-time:     0 d,  0 h,  0 min,  0.024 sec
 * ratio c/w:     0.970 speedup


-------------------------   --------------------
FINAL SINGLE POINT ENERGY       -39.518194996060
-------------------------   --------------------


-------------
DIPOLE MOMENT
-------------
                                X             Y             Z
Total Dipole Moment    :     -0.10800       1.96100       0.52900
                        -----------------------------------------
Magnitude (a.u.)       :      2.03397
Magnitude (Debye)      :      5.16994


------------------
CARTESIAN GRADIENT
------------------

   1   C   :   -0.000004153    0.003621626   -0.000438350
   2   C   :   -0.002058325    0.002339714   -0.003940955
   3   C   :   -0.001976924   -0.000843901    0.000785920
   4   C   :   -0.001913949   -0.003125026    0.000782737
   5   C   :    0.003684321    0.004401533    0.002277292
   6   C   :    0.002705068    0.006577657   -0.002960313
   7   C   :   -0.009176282    0.001512579   -0.001336675
   8   C   :    0.004255688   -0.009729491    0.000099814
   9   C   :    0.003571261    0.008379137   -0.008706408
  10   N   :   -0.004234848   -0.005125086    0.005791246
  11   N   :   -0.008185647   -0.022068183    0.018102159
  12   B   :    0.013835103    0.020209736   -0.017202216
  13   F   :   -0.005763863   -0.007205216    0.000910612
  14   F   :    0.002782928   -0.003256645    0.003225194
  15   H   :   -0.000348124    0.001996563   -0.000563408
  16   H   :    0.000480164    0.001713103    0.003878478
  17   H   :    0.001331547   -0.000467721   -0.000498523
  18   H   :    0.000617859    0.000119256   -0.000509562
  19   H   :    0.000133933    0.001640253   -0.000548949
  20   H   :   -0.000395462   -0.000318256    0.000224230
  21   H   :    0.000659705   -0.000371632    0.000627675

Difference to translation invariance:
           :    0.0000000000    0.0000000000   -0.0000000000

Difference to rotation invariance:
           :   -0.0000002123   -0.0000000027    0.0000001548

Norm of the Cartesian gradient     ...    0.0501484511
RMS gradient                       ...    0.0063181110
MAX gradient                       ...    0.0220681830
------------------------------------------------------------------------------
                         ORCA GEOMETRY RELAXATION STEP
------------------------------------------------------------------------------

Reading the OPT-File                    .... done
Getting information on internals        .... done
Copying old internal coords+grads       .... done
Making the new internal coordinates     .... (2022 redundants) done
Validating the new internal coordinates .... (2022 redundants) done
Calculating the B-matrix                .... done
Calculating the G,G- and P matrices     .... done
Transforming gradient to internals      .... done
Projecting the internal gradient        .... done
Number of atoms                         ....  21
Number of internal coordinates          .... 120
Current Energy                          ....   -39.518194996 Eh
Current gradient norm                   ....     0.050148451 Eh/bohr
Maximum allowed component of the step   ....  0.300
Current trust radius                    ....  0.300
Updating the Hessian (BFGS)             .... done
Forming the augmented Hessian           .... done
Diagonalizing the augmented Hessian     .... done
Last element of RFO vector              ....  0.880681944
Lowest eigenvalues of augmented Hessian:
 -0.010086185  0.019787584  0.023807875  0.024394939  0.025003792
Length of the computed step             ....  0.537887769
Warning: the length of the step is outside the trust region - taking restricted step instead
The input lambda is                     ....     0.014890
   iter:   5  x=    0.008119  g= 2173.698564 f(x)=     5.728661
   iter:  10  x=   -0.029066  g=    8.038384 f(x)=     0.073202
   iter:  15  x=   -0.034449  g=    3.112339 f(x)=     0.000000
The output lambda is                    ....    -0.034449 (15 iterations)
The final length of the internal step   ....  0.300000000
Converting the step to Cartesian space:
 Initial RMS(Int)=    0.0273861279
Transforming coordinates:
 Iter   0:  RMS(Cart)=    0.0454338825 RMS(Int)=    0.9926838214
 Iter   5:  RMS(Cart)=    0.0000000178 RMS(Int)=    0.0000000129
done
Storing new coordinates                 .... done
The predicted energy change is          ....    -0.004647471
Previously predicted energy change      ....    -0.004973938
Actually observed energy change         ....    -0.006839567
Ratio of predicted to observed change   ....     1.375080922
New trust radius                        ....     0.300000000

                                .--------------------.
          ----------------------|Geometry convergence|-------------------------
          Item                value                   Tolerance       Converged
          ---------------------------------------------------------------------
          Energy change      -0.0068395672            0.0000050000      NO
          RMS gradient        0.0023436134            0.0001000000      NO
          MAX gradient        0.0078623635            0.0003000000      NO
          RMS step            0.0273861279            0.0020000000      NO
          MAX step            0.1251451101            0.0040000000      NO
          -------------------------------------------------------------------------
          ........................................................
          Max(Bonds)      0.0248      Max(Angles)    2.95
          Max(Dihed)        7.17      Max(Improp)    0.00
          ---------------------------------------------------------------------

The optimization has not yet converged - more geometry cycles are needed


    ---------------------------------------------------------------------------
                         Redundant Internal Coordinates
                            (Angstroem and degrees)

        Definition                    Value    dE/dq     Step     New-Value
    ----------------------------------------------------------------------------
     1. B(C   1,C   0)                1.3856  0.001428 -0.0016    1.3840   
     2. B(C   2,C   1)                1.4166  0.000890 -0.0019    1.4147   
     3. B(C   3,C   2)                1.3766  0.000020 -0.0003    1.3763   
     4. B(C   4,C   3)                1.4046  0.000255 -0.0010    1.4036   
     5. B(C   5,C   0)                1.3910  0.001584 -0.0053    1.3858   
     6. B(C   6,C   5)                1.4027 -0.004313  0.0077    1.4104   
     7. B(C   7,C   6)                1.3869  0.004990 -0.0074    1.3794   
     8. B(C   8,C   7)                1.3898 -0.003223  0.0056    1.3954   
     9. B(N   9,C   4)                1.3197 -0.001432  0.0019    1.3216   
    10. B(N   9,C   1)                1.3863  0.002934 -0.0024    1.3839   
    11. B(N  10,C   8)                1.3367  0.002584 -0.0060    1.3307   
    12. B(N  10,C   5)                1.4127  0.007862 -0.0248    1.3879   
    13. B(B  11,N  10)                1.5334 -0.006739  0.0189    1.5523   
    14. B(B  11,N   9)                1.5628  0.004656 -0.0152    1.5476   
    15. B(F  12,B  11)                1.3905  0.007316 -0.0131    1.3774   
    16. B(F  13,B  11)                1.3696 -0.002166  0.0034    1.3730   
    17. B(H  14,C   7)                1.0712 -0.000217  0.0006    1.0718   
    18. B(H  15,C   8)                1.0754  0.000143 -0.0005    1.0749   
    19. B(H  16,C   6)                1.0728  0.000046 -0.0003    1.0726   
    20. B(H  17,C   2)                1.0724 -0.000020  0.0001    1.0725   
    21. B(H  18,C   3)                1.0713 -0.000297  0.0008    1.0721   
    22. B(H  19,C   4)                1.0745  0.000426 -0.0011    1.0733   
    23. B(H  20,C   0)                1.0786 -0.000513  0.0013    1.0800   
    24. A(C   1,C   0,C   5)          120.50 -0.001157    0.44    120.94   
    25. A(C   1,C   0,H  20)          120.80  0.001269   -0.42    120.38   
    26. A(C   5,C   0,H  20)          118.66 -0.000123   -0.03    118.64   
    27. A(C   0,C   1,C   2)          133.21  0.001502   -0.75    132.46   
    28. A(C   0,C   1,N   9)          118.46 -0.001093    0.88    119.34   
    29. A(C   2,C   1,N   9)          107.70 -0.000365   -0.11    107.60   
    30. A(C   1,C   2,C   3)          106.84  0.000427   -0.03    106.81   
    31. A(C   1,C   2,H  17)          124.83 -0.000943    0.23    125.06   
    32. A(C   3,C   2,H  17)          128.32  0.000522   -0.20    128.12   
    33. A(C   4,C   3,H  18)          126.77  0.002122   -0.66    126.11   
    34. A(C   2,C   3,C   4)          106.80 -0.000797    0.26    107.06   
    35. A(C   2,C   3,H  18)          126.43 -0.001325    0.40    126.83   
[...]
   118. D(F  12,B  11,N   9,C   1)    119.30 -0.000094   -0.01    119.29   
   119. D(N  10,B  11,N   9,C   4)   -179.84  0.000035   -0.12   -179.96   
   120. D(N  10,B  11,N   9,C   1)      0.12  0.000013   -0.06      0.06   
    ----------------------------------------------------------------------------

Geometry step timings:
Preparation and reading OPT file:      0.000 s ( 0.660 %)
Internal coordinates            :      0.000 s ( 1.120 %)
B/P matrices and projection     :      0.002 s (31.960 %)
Hessian update/contruction      :      0.001 s (10.140 %)
Making the step                 :      0.001 s (26.160 %)
Converting the step to Cartesian:      0.000 s ( 2.800 %)
Storing new data                :      0.000 s ( 1.100 %)
Checking convergence            :      0.000 s ( 2.000 %)
Final printing                  :      0.001 s (24.060 %)
Total time                      :      0.005 s
                 *******************************************************
                 *** FINAL ENERGY EVALUATION AT THE STATIONARY POINT ***
                 ***               (AFTER   15 CYCLES)               ***
                 *******************************************************
---------------------------------
CARTESIAN COORDINATES (ANGSTROEM)
---------------------------------
  C    -1.719242    4.912199   -0.144205
  C    -2.890126    4.178608   -0.044537
  C    -4.245913    4.588330   -0.054253
  C    -5.007781    3.449974    0.075424
  C    -4.115376    2.371514    0.162018
  C    -0.482850    4.288308   -0.110014
  C     0.827202    4.820486   -0.191108
  C     1.696170    3.757309   -0.104421
  C     0.912359    2.601852    0.027484
  N    -2.864229    2.805819    0.090678
  N    -0.375356    2.919042    0.023728
  B    -1.575884    1.945278    0.146139
  F    -1.512721    1.273506    1.345287
  F    -1.563444    1.053452   -0.902216
  H     2.767364    3.785668   -0.130374
  H     1.226659    1.579912    0.121547
  H     1.067484    5.859954   -0.299201
  H    -4.585669    5.601186   -0.146782
  H    -6.076897    3.379906    0.107079
  H    -4.329361    1.325298    0.269619
  H    -1.770296    5.985416   -0.249833

----------------------------
CARTESIAN COORDINATES (A.U.)
----------------------------
  NO LB    ZA    FRAG    MASS        X           Y           Z
   0 C   6.0000    0    12.011   -3.248896    9.282710   -0.272509
   1 C   6.0000    0    12.011   -5.461547    7.896425   -0.084163
   2 C   6.0000    0    12.011   -8.023613    8.670688   -0.102523
   3 C   6.0000    0    12.011   -9.463334    6.519505    0.142531
   4 C   6.0000    0    12.011   -7.776934    4.481512    0.306169
   5 C   6.0000    0    12.011   -0.912453    8.103729   -0.207896
   6 C   6.0000    0    12.011    1.563185    9.109399   -0.361141
   7 C   6.0000    0    12.011    3.205297    7.100285   -0.197328
   8 C   6.0000    0    12.011    1.724108    4.916788    0.051937
   9 N   7.0000    0    14.007   -5.412608    5.302230    0.171356
  10 N   7.0000    0    14.007   -0.709320    5.516191    0.044839
  11 B   5.0000    0    10.810   -2.977990    3.676042    0.276163
  12 F   9.0000    0    18.998   -2.858629    2.406578    2.542223
  13 F   9.0000    0    18.998   -2.954481    1.990737   -1.704941
  14 H   1.0000    0     1.008    5.229560    7.153876   -0.246372
  15 H   1.0000    0     1.008    2.318050    2.985601    0.229691
  16 H   1.0000    0     1.008    2.017252   11.073707   -0.565408
  17 H   1.0000    0     1.008   -8.665658   10.584707   -0.277378
  18 H   1.0000    0     1.008  -11.483671    6.387097    0.202350
  19 H   1.0000    0     1.008   -8.181306    2.504451    0.509506
  20 H   1.0000    0     1.008   -3.345374   11.310797   -0.472117

      -----------------------------------------------------------      
     |                   =====================                   |     
     |                           x T B                           |     
     |                   =====================                   |     
     |                         S. Grimme                         |     
     |          Mulliken Center for Theoretical Chemistry        |     
     |                    University of Bonn                     |     
      -----------------------------------------------------------      

   * xtb version 6.7.1 (edcfbbe) compiled by 'albert@albert-system' on 2024-07-22

   xtb is free software: you can redistribute it and/or modify it under
   the terms of the GNU Lesser General Public License as published by
   the Free Software Foundation, either version 3 of the License, or
   (at your option) any later version.
   
   xtb is distributed in the hope that it will be useful,
   but WITHOUT ANY WARRANTY; without even the implied warranty of
   MERCHANTABILITY or FITNESS FOR A PARTICULAR PURPOSE.  See the
   GNU Lesser General Public License for more details.
   
   Cite this work as:
   * C. Bannwarth, E. Caldeweyher, S. Ehlert, A. Hansen, P. Pracht,
     J. Seibert, S. Spicher, S. Grimme, WIREs Comput. Mol. Sci., 2020, 11,
     e01493. DOI: 10.1002/wcms.1493
   
   for GFN2-xTB:
   * C. Bannwarth, S. Ehlert and S. Grimme., J. Chem. Theory Comput., 2019,
     15, 1652-1671. DOI: 10.1021/acs.jctc.8b01176
   for GFN1-xTB:
   * S. Grimme, C. Bannwarth, P. Shushkov, J. Chem. Theory Comput., 2017,
     13, 1989-2009. DOI: 10.1021/acs.jctc.7b00118
   for GFN0-xTB:
   * P. Pracht, E. Caldeweyher, S. Ehlert, S. Grimme, ChemRxiv, 2019, preprint.
     DOI: 10.26434/chemrxiv.8326202.v1
   for GFN-FF:
   * S. Spicher and S. Grimme, Angew. Chem. Int. Ed., 2020, 59, 15665-15673.
     DOI: 10.1002/anie.202004239
   
   for ALPB and GBSA implicit solvation:
   * S. Ehlert, M. Stahn, S. Spicher, S. Grimme, J. Chem. Theory Comput.,
     2021, 17, 4250-4261. DOI: 10.1021/acs.jctc.1c00471
   
   for ddCOSMO and CPCM-X implicit solvation:
   * M. Stahn, S. Ehlert, S. Grimme, J. Phys. Chem. A,
     2023, XX, XXXX-XXXX. DOI: 10.1021/acs.jpca.3c04382
   
   for DFT-D4:
   * E. Caldeweyher, C. Bannwarth and S. Grimme, J. Chem. Phys., 2017,
     147, 034112. DOI: 10.1063/1.4993215
   * E. Caldeweyher, S. Ehlert, A. Hansen, H. Neugebauer, S. Spicher,
     C. Bannwarth and S. Grimme, J. Chem. Phys., 2019, 150, 154122.
     DOI: 10.1063/1.5090222
   * E. Caldeweyher, J.-M. Mewes, S. Ehlert and S. Grimme, Phys. Chem. Chem. Phys.
     2020, 22, 8499-8512. DOI: 10.1039/D0CP00502A
   
   for sTDA-xTB:
   * S. Grimme and C. Bannwarth, J. Chem. Phys., 2016, 145, 054103.
     DOI: 10.1063/1.4959605
   
   in the mass-spec context:
   * V. Asgeirsson, C. Bauer and S. Grimme, Chem. Sci., 2017, 8, 4879.
     DOI: 10.1039/c7sc00601b
   * J. Koopman and S. Grimme, ACS Omega 2019, 4, 12, 15120-15133.
     DOI: 10.1021/acsomega.9b02011
   
   for metadynamics refer to:
   * S. Grimme, J. Chem. Theory Comput., 2019, 155, 2847-2862
     DOI: 10.1021/acs.jctc.9b00143
   
   for SPH calculations refer to:
   * S. Spicher and S. Grimme, J. Chem. Theory Comput., 2021, 17, 1701-1714
     DOI: 10.1021/acs.jctc.0c01306
   
   for ONIOM refer to:
   * C. Plett, A. Katbashev, S. Ehlert, S. Grimme, M. Bursch,
     Phys. Chem. Chem. Phys., 2023, 25, 17860-17868. DOI: 10.1039/D3CP02178E
   
   for DIPRO refer to:
   * J. Kohn, N. Gildemeister, S. Grimme, D. Fazzi, A. Hansen,
     J. Chem. Phys., 2023, just accepted.
   
   for PTB refer to:
   * S. Grimme, M. Mueller, A. Hansen, J. Chem. Phys., 2023, 158, 124111.
     DOI: 10.1063/5.0137838
   
   with help from (in alphabetical order)
   P. Atkinson, C. Bannwarth, F. Bohle, G. Brandenburg, E. Caldeweyher
   M. Checinski, S. Dohm, S. Ehlert, S. Ehrlich, I. Gerasimov, C. Hölzer
   A. Katbashev, J. Kohn, J. Koopman, C. Lavigne, S. Lehtola, F. März, M. Müller,
   F. Musil, H. Neugebauer, J. Pisarek, C. Plett, P. Pracht, F. Pultar,
   J. Seibert, P. Shushkov, S. Spicher, M. Stahn, M. Steiner, T. Strunk,
   J. Stückrath, T. Rose, and J. Unsleber
   
 * started run on 2025/10/29 at 17:32:09.701     
   ID    Z sym.   atoms
    1    6 C      1-9
    2    7 N      10, 11
    3    5 B      12
    4    9 F      13, 14
    5    1 H      15-21

           -------------------------------------------------
          |                Calculation Setup                |
           -------------------------------------------------

          program call               : otool_xtb Bodipy_Opt_XTB.xyz --grad -c 0 -u 0 -P 1 --namespace Bodipy_Opt --input Bodipy_Opt_XTB.input.tmp --acc 0.200000
          calculation namespace      : Bodipy_Opt
          coordinate file            : Bodipy_Opt_XTB.xyz
          omp threads                :                     1


           -------------------------------------------------
          |                 G F N 2 - x T B                 |
           -------------------------------------------------

        Reference                      10.1021/acs.jctc.8b01176
      * Hamiltonian:
        H0-scaling (s, p, d)           1.850000    2.230000    2.230000
        zeta-weighting                 0.500000
      * Dispersion:
        s8                             2.700000
        a1                             0.520000
        a2                             5.000000
        s9                             5.000000
      * Repulsion:
        kExp                           1.500000    1.000000
        rExp                           1.000000
      * Coulomb:
        alpha                          2.000000
        third order                    shell-resolved
        anisotropic                    true
        a3                             3.000000
        a5                             4.000000
        cn-shift                       1.200000
        cn-exp                         4.000000
        max-rad                        5.000000

q/qsh data taken from xtbrestart
CAMM data taken from xtbrestart

          ...................................................
          :                      SETUP                      :
          :.................................................:
          :  # basis functions                  63          :
          :  # atomic orbitals                  63          :
          :  # shells                           35          :
          :  # electrons                        70          :
          :  max. iterations                   250          :
          :  Hamiltonian                  GFN2-xTB          :
          :  restarted?                       true          :
          :  GBSA solvation                  false          :
          :  PC potential                    false          :
          :  electronic temp.          300.0000000     K    :
          :  accuracy                    0.2000000          :
          :  -> integral cutoff          0.3198970E+02      :
          :  -> integral neglect         0.2000000E-08      :
          :  -> SCF convergence          0.2000000E-06 Eh   :
          :  -> wf. convergence          0.2000000E-04 e    :
          :  Broyden damping             0.4000000          :
          :  net charge                          0          :
          :  unpaired electrons                  0          :
          ...................................................

 iter      E             dE          RMSdq      gap      omega  full diag
   1    -40.0513235 -0.400513E+02  0.658E-03    1.79       0.0  T
   2    -40.0513235 -0.804479E-08  0.389E-03    1.79       5.6  T
   3    -40.0513234  0.104706E-06  0.213E-03    1.79      10.3  T
   4    -40.0513235 -0.111691E-06  0.425E-04    1.79      51.3  T
   5    -40.0513235 -0.321710E-08  0.151E-04    1.79     144.4  T
   6    -40.0513235 -0.219927E-09  0.605E-05    1.79     360.5  T

   *** convergence criteria satisfied after 6 iterations ***

         #    Occupation            Energy/Eh            Energy/eV
      -------------------------------------------------------------
         1        2.0000           -0.7666905             -20.8627
       ...           ...                  ...                  ...
        29        2.0000           -0.4548982             -12.3784
        30        2.0000           -0.4460255             -12.1370
        31        2.0000           -0.4437520             -12.0751
        32        2.0000           -0.4336770             -11.8010
        33        2.0000           -0.4263738             -11.6022
        34        2.0000           -0.4261600             -11.5964
        35        2.0000           -0.3983601             -10.8399 (HOMO)
        36                         -0.3325499              -9.0491 (LUMO)
        37                         -0.2168942              -5.9020
        38                         -0.1936986              -5.2708
        39                         -0.1792238              -4.8769
        40                         -0.1358395              -3.6964
       ...                                ...                  ...
        63                          0.6890476              18.7499
      -------------------------------------------------------------
                  HL-Gap            0.0658102 Eh            1.7908 eV
             Fermi-level           -0.3654550 Eh           -9.9445 eV

 SCC (total)                   0 d,  0 h,  0 min,  0.022 sec
 SCC setup                      ...        0 min,  0.000 sec (  1.188%)
 Dispersion                     ...        0 min,  0.000 sec (  0.854%)
 classical contributions        ...        0 min,  0.000 sec (  0.152%)
 integral evaluation            ...        0 min,  0.004 sec ( 18.429%)
 iterations                     ...        0 min,  0.007 sec ( 31.779%)
 molecular gradient             ...        0 min,  0.010 sec ( 46.690%)
 printout                       ...        0 min,  0.000 sec (  0.766%)

         :::::::::::::::::::::::::::::::::::::::::::::::::::::
         ::                     SUMMARY                     ::
         :::::::::::::::::::::::::::::::::::::::::::::::::::::
         :: total energy             -39.530634782095 Eh    ::
         :: gradient norm              0.000556965444 Eh/a0 ::
         :: HOMO-LUMO gap              1.790787011147 eV    ::
         ::.................................................::
         :: SCC energy               -40.051285097616 Eh    ::
         :: -> isotropic ES            0.083929970845 Eh    ::
         :: -> anisotropic ES         -0.002743007224 Eh    ::
         :: -> anisotropic XC          0.011214087320 Eh    ::
         :: -> dispersion             -0.021117112753 Eh    ::
         :: repulsion energy           0.520650315521 Eh    ::
         :: add. restraining           0.000000000000 Eh    ::
         :: total charge              -0.000000000000 e     ::
         :::::::::::::::::::::::::::::::::::::::::::::::::::::


Property printout bound to 'properties.out'

           -------------------------------------------------
          | TOTAL ENERGY              -39.530634782095 Eh   |
          | GRADIENT NORM               0.000556965444 Eh/α |
          | HOMO-LUMO GAP               1.790787011147 eV   |
           -------------------------------------------------

------------------------------------------------------------------------
 * finished run on 2025/10/29 at 17:32:09.739     
------------------------------------------------------------------------
 total:
 * wall-time:     0 d,  0 h,  0 min,  0.037 sec
 *  cpu-time:     0 d,  0 h,  0 min,  0.035 sec
 * ratio c/w:     0.958 speedup
 SCF:
 * wall-time:     0 d,  0 h,  0 min,  0.023 sec
 *  cpu-time:     0 d,  0 h,  0 min,  0.022 sec
 * ratio c/w:     0.967 speedup


-------------------------   --------------------
FINAL SINGLE POINT ENERGY       -39.530634782100
-------------------------   --------------------


-------------
DIPOLE MOMENT
-------------
                                X             Y             Z
Total Dipole Moment    :     -0.09500       1.96400      -0.18900
                        -----------------------------------------
Magnitude (a.u.)       :      1.97536
Magnitude (Debye)      :      5.02096

                                *** OPTIMIZATION RUN DONE ***


--------------------------------
SUGGESTED CITATIONS FOR THIS RUN
--------------------------------

Below you find a list of papers that are relevant to this ORCA run
We neither can nor want to force you to cite these papers, but we appreciate if you do
You receive ORCA, which is the product of decades of hard work by many enthusiastic individuals, for free
The only thing we kindly ask in return is that you cite our papers,
We deeply appreciate it, if you show your appreciation for ORCA by not just citing the generic ORCA reference.

Please note that relegating all ORCA citations to the supporting information does *not* help us.
SI sections are not indexed - citations you put there will not count into any citation statistics
But we need these citations in order to attract the funding resources that allow us to do what we are doing

Therefore, if you are a happy ORCA user, please consider citing a few of the papers listed below in the main body of your paper

In addition to the list printed below, the program has created the file Bodipy_Opt.bibtex that contains the list in bibtex format
You can import this file easily into all common literature databanks and citation aid programs


List of essential papers. We consider these as the minimum necessary citations

  1. Bannwarth, C.; Ehlert, S.; Grimme, S.
     GFN2-xTB—An Accurate and Broadly Parametrized Self-Consistent Tight-Binding Quantum Chemical Method with Multipole Electrostatics and Density-Dependent Dispersion Contributions
     J. Chem. Theory Comput. 2019 15(3), 1652-1671
     doi.org/10.1021/acs.jctc.8b01176
  2. Neese, F.
     Software update: the ORCA program system, version 6.0
     WIRES Comput. Molec. Sci. 2025 15(1), e70019
     doi.org/10.1002/wcms.7019

List of papers to cite with high priority. The work reported in these papers was absolutely
necessary for this run to complete.
Our perspective: the developers of density functionals and basis sets usually get cited in chemistry papers
Good! But without the algorithms to do something with them, the functionals or basis sets would not do anything.
Hence, in our opinion, the algorithm design and method developments papers are equally worthy of getting cited

  1. Bannwarth, C.; Caldeweyher, E.; Ehlert, S.; Hansen, A.; Pracht, P.; Seibert, J.; Spicher, S.; Grimme, S.
     Extended tight-binding quantum chemistry methods
     WIRES Comput. Molec. Sci. 2020 11(2), e1493
     doi.org/10.1002/wcms.1493

List of suggested additional citations. These are papers that are important in the 'surrounding' of 
of this run, or papers that preceded the highly important papers. If you like your results we are grateful for a citation.

  1. Neese, F.
     The ORCA program system
     WIRES Comput. Molec. Sci. 2012 2(1), 73-78
     doi.org/10.1002/wcms.81
  2. Neese, F.
     Software update: the ORCA program system, version 4.0
     WIRES Comput. Molec. Sci. 2018 8(1), 1-6
     doi.org/10.1002/wcms.1327
  3. Neese, F.; Wennmohs, F.; Becker, U.; Riplinger, C.
     The ORCA quantum chemistry program package
     J. Chem. Phys. 2020 152(22), 224108
     doi.org/10.1063/5.0004608
  4. Neese, F.
     Software update: The ORCA program system—Version 5.0
     WIRES Comput. Molec. Sci. 2022 12(1), e1606
     doi.org/10.1002/wcms.1606

List of optional additional citations

  1. Neese, F.
     Approximate second-order SCF convergence for spin unrestricted wavefunctions
     Chem. Phys. Lett. 2000 325(1-3), 93-98
     doi.org/10.1016/s0009-2614(00)00662-x

Timings for individual modules:

Sum of individual times          ...        0.792 sec (=   0.013 min)
Geometry relaxation              ...        0.086 sec (=   0.001 min)  10.9 %
XTB module                       ...        0.705 sec (=   0.012 min)  89.1 %
                             ****ORCA TERMINATED NORMALLY****
TOTAL RUN TIME: 0 days 0 hours 0 minutes 0 seconds 987 msec
